/*--------------------------------*- C++ -*----------------------------------*\
| =========                 |                                                 |
| \\      /  F ield         | OpenFOAM: The Open Source CFD Toolbox           |
|  \\    /   O peration     | Version:  v2406                                 |
|   \\  /    A nd           | Website:  www.openfoam.com                      |
|    \\/     M anipulation  |                                                 |
\*---------------------------------------------------------------------------*/
FoamFile
{
    version     2.0;
    format      ascii;
    class       volScalarField;
    location    "predicted";
    object      epsilon;
}
// * * * * * * * * * * * * * * * * * * * * * * * * * * * * * * * * * * * * * //

dimensions      [0 2 -3 0 0 0 0];

internalField   nonuniform List<scalar>
49181
(
2.675236e+03
1.670710e+03
1.355164e+03
1.731600e+03
1.887321e+03
1.964451e+03
2.029812e+03
2.083646e+03
2.112612e+03
2.111750e+03
2.110910e+03
2.117916e+03
2.099639e+03
2.047893e+03
1.971930e+03
1.927310e+03
2.055640e+03
2.074891e+03
1.618972e+03
3.328303e+02
2.818516e+02
4.367691e+02
5.368616e+02
6.284020e+02
7.218996e+02
8.203737e+02
9.219794e+02
1.021210e+03
1.092666e+03
1.137418e+03
1.086902e+03
9.422570e+02
7.653280e+02
6.678498e+02
7.246324e+02
1.043036e+03
1.168422e+03
2.061500e+02
1.299348e+02
1.475067e+02
1.770554e+02
2.059281e+02
2.524219e+02
3.124318e+02
3.846110e+02
4.695119e+02
5.524165e+02
5.983292e+02
5.562909e+02
3.952520e+02
2.497527e+02
1.939268e+02
2.061657e+02
3.388710e+02
1.472109e+03
2.315650e+02
1.019532e+02
1.050166e+02
1.249218e+02
1.472645e+02
1.750315e+02
2.100736e+02
2.527681e+02
3.036517e+02
3.457618e+02
3.768309e+02
3.471055e+02
2.447209e+02
1.554268e+02
1.202386e+02
1.260455e+02
1.922459e+02
1.542853e+03
2.042217e+02
7.833155e+01
7.578165e+01
8.685327e+01
1.021874e+02
1.210307e+02
1.423629e+02
1.647198e+02
1.885554e+02
2.134056e+02
2.265338e+02
2.147243e+02
1.549978e+02
1.025648e+02
7.798512e+01
8.153834e+01
1.224706e+02
1.516614e+03
1.669915e+02
5.623170e+01
5.020889e+01
5.577555e+01
6.255872e+01
7.187340e+01
8.242015e+01
9.599447e+01
1.109471e+02
1.235244e+02
1.329313e+02
1.276644e+02
9.066886e+01
6.025269e+01
4.699542e+01
4.925965e+01
7.020221e+01
1.458330e+03
1.318987e+02
3.711182e+01
2.963671e+01
3.225147e+01
3.471328e+01
3.955413e+01
4.453934e+01
4.948608e+01
5.428291e+01
5.939129e+01
6.600779e+01
6.595189e+01
4.789510e+01
3.223611e+01
2.431490e+01
2.596140e+01
3.630645e+01
1.388751e+03
1.052576e+02
2.298565e+01
1.306203e+01
1.389698e+01
1.508033e+01
1.563435e+01
1.757390e+01
1.938043e+01
2.178460e+01
2.424737e+01
2.842880e+01
3.133331e+01
1.979268e+01
1.213072e+01
7.189086e+00
8.751008e+00
1.219195e+01
1.309748e+03
8.506671e+01
1.093118e+01
-3.427122e-01
-2.170122e+00
-1.784601e+00
-2.005543e+00
-1.888479e+00
-1.119159e+00
2.187288e-02
1.708224e+00
4.768695e+00
8.289048e+00
-1.931601e-01
-4.223285e+00
-8.411068e+00
-6.152227e+00
-5.648246e+00
1.231557e+03
7.124729e+01
3.024166e-01
-1.162682e+01
-1.481829e+01
-1.511335e+01
-1.531651e+01
-1.556798e+01
-1.524509e+01
-1.410667e+01
-1.274864e+01
-9.948996e+00
-6.217738e+00
-1.398717e+01
-1.669039e+01
-2.014021e+01
-1.787460e+01
-1.772965e+01
1.156548e+03
6.221666e+01
-7.654993e+00
-1.967009e+01
-2.243264e+01
-2.255686e+01
-2.255122e+01
-2.239433e+01
-2.226058e+01
-2.188569e+01
-2.126248e+01
-1.938473e+01
-1.569122e+01
-2.148645e+01
-2.378292e+01
-2.703187e+01
-2.465409e+01
-2.494450e+01
1.093905e+03
5.524108e+01
-1.239089e+01
-2.394764e+01
-2.627930e+01
-2.625189e+01
-2.614721e+01
-2.593402e+01
-2.565552e+01
-2.591923e+01
-2.542953e+01
-2.379669e+01
-2.094101e+01
-2.535975e+01
-2.724159e+01
-2.995122e+01
-2.769939e+01
-2.894003e+01
1.036383e+03
5.031203e+01
-1.563266e+01
-2.575444e+01
-2.772941e+01
-2.774233e+01
-2.806258e+01
-2.808744e+01
-2.814704e+01
-2.812387e+01
-2.818656e+01
-2.700220e+01
-2.429396e+01
-2.797631e+01
-2.887529e+01
-3.130821e+01
-2.928029e+01
-3.109282e+01
9.828284e+02
4.600828e+01
-1.807330e+01
-2.672044e+01
-2.881658e+01
-2.870263e+01
-2.877661e+01
-2.931676e+01
-2.983968e+01
-2.997899e+01
-2.988981e+01
-2.919159e+01
-2.624212e+01
-2.975900e+01
-3.010565e+01
-3.298479e+01
-3.115236e+01
-3.244889e+01
9.369311e+02
4.351412e+01
-1.984215e+01
-2.740578e+01
-2.978201e+01
-2.995054e+01
-2.972918e+01
-3.023245e+01
-3.087699e+01
-3.149928e+01
-3.138762e+01
-3.082172e+01
-2.798231e+01
-3.105974e+01
-3.154041e+01
-3.442864e+01
-3.290948e+01
-3.410174e+01
8.949498e+02
4.213449e+01
-2.036053e+01
-2.706032e+01
-2.939548e+01
-3.003405e+01
-3.054441e+01
-3.096848e+01
-3.178398e+01
-3.224511e+01
-3.260616e+01
-3.199762e+01
-2.943893e+01
-3.205650e+01
-3.189876e+01
-3.355782e+01
-3.218334e+01
-3.502578e+01
8.489513e+02
4.137200e+01
-1.972214e+01
-2.602118e+01
-2.840124e+01
-2.906526e+01
-2.997578e+01
-3.088239e+01
-3.141432e+01
-3.166291e+01
-3.224448e+01
-3.244372e+01
-2.974160e+01
-3.181231e+01
-3.089492e+01
-3.201903e+01
-3.045776e+01
-3.471705e+01
8.047186e+02
4.111223e+01
-1.912699e+01
-2.476953e+01
-2.725724e+01
-2.825712e+01
-2.928112e+01
-3.026387e+01
-3.093299e+01
-3.111480e+01
-3.107108e+01
-3.074994e+01
-2.836632e+01
-3.115423e+01
-2.975172e+01
-3.021959e+01
-2.827049e+01
-3.318162e+01
7.935399e+02
4.177607e+01
-1.883840e+01
-2.398429e+01
-2.639809e+01
-2.775579e+01
-2.878121e+01
-2.966228e+01
-3.031340e+01
-3.060018e+01
-3.061224e+01
-2.990603e+01
-2.758444e+01
-2.998627e+01
-2.796099e+01
-2.776550e+01
-2.586961e+01
-3.098481e+01
8.865734e+02
5.031846e+01
-1.927319e+01
-2.580751e+01
-2.822719e+01
-2.941167e+01
-3.023403e+01
-3.102384e+01
-3.185240e+01
-3.220160e+01
-3.223679e+01
-3.158183e+01
-2.870908e+01
-3.063039e+01
-2.848386e+01
-2.836359e+01
-2.730288e+01
-3.324036e+01
9.926246e+02
6.636293e+01
-1.314809e+01
-3.013341e+01
-3.273564e+01
-3.354071e+01
-3.431401e+01
-3.525605e+01
-3.581009e+01
-3.600740e+01
-3.575860e+01
-3.466966e+01
-3.182639e+01
-3.468540e+01
-3.315700e+01
-3.411780e+01
-3.406402e+01
-3.560813e+01
1.248498e+03
1.432886e+02
8.156749e+00
-1.932581e+01
-2.408410e+01
-2.499261e+01
-2.549777e+01
-2.599014e+01
-2.645908e+01
-2.697984e+01
-2.681431e+01
-2.550110e+01
-2.290051e+01
-2.724545e+01
-2.712090e+01
-2.807826e+01
-2.423787e+01
-1.822615e+01
1.345364e+03
2.384472e+02
1.900037e+01
-2.084669e+01
-2.703056e+01
-2.697661e+01
-2.696238e+01
-2.746001e+01
-2.800874e+01
-2.802320e+01
-2.783166e+01
-2.666141e+01
-2.412172e+01
-2.984132e+01
-3.085941e+01
-3.201888e+01
-2.638389e+01
-1.543241e+01
1.445599e+03
2.691938e+02
1.997570e+01
-2.309951e+01
-2.952282e+01
-2.947676e+01
-2.943385e+01
-3.014900e+01
-3.083214e+01
-3.107085e+01
-3.101347e+01
-2.996396e+01
-2.748967e+01
-3.271375e+01
-3.340345e+01
-3.490355e+01
-2.943150e+01
-2.032769e+01
1.474904e+03
2.598065e+02
1.766720e+01
-2.400074e+01
-3.042643e+01
-3.079618e+01
-3.072473e+01
-3.132944e+01
-3.183892e+01
-3.228374e+01
-3.223032e+01
-3.128338e+01
-2.892559e+01
-3.377968e+01
-3.405042e+01
-3.572460e+01
-3.109101e+01
-2.310530e+01
1.478742e+03
2.438220e+02
1.604987e+01
-2.336087e+01
-3.004376e+01
-3.047840e+01
-3.107491e+01
-3.164084e+01
-3.232265e+01
-3.282689e+01
-3.296819e+01
-3.201570e+01
-2.970664e+01
-3.384578e+01
-3.402545e+01
-3.565229e+01
-3.240618e+01
-2.474975e+01
1.431855e+03
2.380712e+02
1.870017e+01
-2.013944e+01
-2.804571e+01
-2.912391e+01
-3.028193e+01
-3.123421e+01
-3.170695e+01
-3.215732e+01
-3.197116e+01
-3.072580e+01
-2.861497e+01
-3.422721e+01
-3.395109e+01
-3.508176e+01
-3.287367e+01
-2.488537e+01
1.220759e+03
2.196744e+02
3.387498e+01
-1.257263e+01
-2.190903e+01
-2.304006e+01
-2.312499e+01
-2.309360e+01
-2.260081e+01
-2.137904e+01
-1.888915e+01
-1.624714e+01
-1.505981e+01
-2.580953e+01
-2.983113e+01
-3.407718e+01
-2.734912e+01
-1.678254e+01
1.406869e+03
2.880499e+02
7.326715e+01
5.725727e+01
5.357876e+01
5.641932e+01
5.897625e+01
6.325407e+01
6.992896e+01
9.005621e+01
1.145883e+02
1.357321e+02
1.266118e+02
1.019639e+02
7.548945e+01
6.927764e+01
8.633518e+01
1.366173e+02
2.615153e+03
1.373585e+03
8.776507e+02
1.029717e+03
1.161407e+03
1.248122e+03
1.329381e+03
1.425652e+03
1.554148e+03
1.671070e+03
1.774333e+03
1.830004e+03
1.829435e+03
1.779430e+03
1.713116e+03
1.685361e+03
1.730156e+03
1.815080e+03
8.398128e+02
6.469232e+01
-4.572398e+00
-1.345091e+01
-1.129621e+01
-9.492618e+00
-8.071250e+00
-7.014853e+00
-6.042290e+00
-5.238285e+00
-4.654063e+00
-4.229610e+00
-3.937603e+00
-3.631135e+00
-3.338237e+00
-3.064345e+00
-2.588458e+00
-1.646096e+00
-3.193707e-01
9.103949e-01
2.172263e+00
3.615517e+00
4.918188e+00
6.305850e+00
8.432126e+00
1.142991e+01
1.457148e+01
1.774821e+01
2.113143e+01
2.510905e+01
2.939103e+01
3.403210e+01
3.910609e+01
4.440736e+01
4.959885e+01
5.480422e+01
6.039831e+01
6.505636e+01
7.004887e+01
7.570202e+01
8.178353e+01
8.847074e+01
9.464390e+01
1.009907e+02
1.067951e+02
1.129884e+02
1.197158e+02
1.264058e+02
1.331188e+02
1.403655e+02
1.492438e+02
1.596511e+02
1.706214e+02
1.822838e+02
1.946668e+02
2.068033e+02
2.195549e+02
2.331437e+02
2.472373e+02
2.613055e+02
2.774161e+02
2.949603e+02
3.131418e+02
3.298632e+02
3.456627e+02
3.611547e+02
3.768537e+02
3.922018e+02
4.077107e+02
4.233932e+02
4.388505e+02
4.540672e+02
4.703125e+02
4.855395e+02
5.004620e+02
5.150814e+02
5.275874e+02
5.371824e+02
5.458845e+02
5.516479e+02
5.557941e+02
5.596186e+02
5.653388e+02
5.706653e+02
5.738448e+02
5.751667e+02
5.749211e+02
5.735359e+02
5.707225e+02
5.691571e+02
5.672295e+02
5.631173e+02
5.562094e+02
5.477957e+02
5.387699e+02
5.311262e+02
5.231035e+02
5.177842e+02
5.137487e+02
5.090234e+02
5.041160e+02
4.974736e+02
4.895726e+02
4.814788e+02
4.730190e+02
4.647636e+02
4.568170e+02
4.482851e+02
4.392353e+02
4.300350e+02
4.211166e+02
4.130525e+02
4.058502e+02
3.990234e+02
3.922042e+02
3.855879e+02
3.790216e+02
3.724565e+02
3.662489e+02
3.604877e+02
3.550877e+02
3.502512e+02
3.449348e+02
3.390598e+02
3.327723e+02
3.263518e+02
3.201282e+02
3.134339e+02
3.072303e+02
3.009862e+02
2.949644e+02
2.892064e+02
2.843982e+02
2.795577e+02
2.746001e+02
2.696861e+02
2.640989e+02
2.586981e+02
2.533589e+02
2.488973e+02
2.451198e+02
2.415078e+02
2.384257e+02
2.353917e+02
2.321605e+02
2.290921e+02
2.265039e+02
2.232882e+02
2.200637e+02
2.171451e+02
2.143128e+02
2.118049e+02
2.089358e+02
2.064359e+02
2.039332e+02
2.016603e+02
1.994523e+02
1.973959e+02
1.951478e+02
1.928073e+02
1.904817e+02
1.879632e+02
1.855767e+02
1.830927e+02
1.803001e+02
1.774653e+02
1.749875e+02
1.725151e+02
1.702828e+02
1.680232e+02
1.659032e+02
1.635475e+02
1.584118e+02
1.572347e+02
1.848227e+02
2.310150e+02
2.998559e+02
3.589076e+02
3.613254e+02
3.129333e+02
8.120028e+01
-5.725056e+01
-6.291904e+01
-6.259826e+01
-6.121081e+01
-5.915972e+01
-5.692096e+01
-5.469383e+01
-5.249070e+01
-5.033731e+01
-4.822333e+01
-4.628681e+01
-4.466505e+01
-4.322424e+01
-4.213918e+01
-4.157486e+01
-4.108050e+01
-4.053459e+01
-4.008293e+01
-3.964390e+01
-3.934871e+01
-3.887710e+01
-3.823500e+01
-3.730199e+01
-3.598495e+01
-3.442380e+01
-3.279960e+01
-3.101157e+01
-2.914867e+01
-2.765476e+01
-2.591709e+01
-2.324282e+01
-2.024967e+01
-1.722392e+01
-1.383168e+01
-1.006475e+01
-6.191515e+00
-2.437480e+00
1.592407e+00
5.760472e+00
9.935011e+00
1.403329e+01
1.763261e+01
2.165118e+01
2.596989e+01
3.118530e+01
3.663228e+01
4.278601e+01
4.918114e+01
5.576521e+01
6.259740e+01
6.913490e+01
7.643692e+01
8.466114e+01
9.402500e+01
1.042048e+02
1.145857e+02
1.247185e+02
1.351955e+02
1.464186e+02
1.585191e+02
1.712754e+02
1.832287e+02
1.956357e+02
2.079871e+02
2.205418e+02
2.334815e+02
2.445938e+02
2.537264e+02
2.634496e+02
2.729396e+02
2.810975e+02
2.884412e+02
2.963423e+02
3.037995e+02
3.111535e+02
3.170264e+02
3.207947e+02
3.244795e+02
3.273605e+02
3.305887e+02
3.340005e+02
3.352625e+02
3.360109e+02
3.357914e+02
3.348761e+02
3.332225e+02
3.312899e+02
3.289701e+02
3.262041e+02
3.237437e+02
3.212894e+02
3.185038e+02
3.147888e+02
3.114034e+02
3.088601e+02
3.072724e+02
3.063290e+02
3.057073e+02
3.039882e+02
3.002390e+02
2.960995e+02
2.921838e+02
2.888122e+02
2.854735e+02
2.819832e+02
2.784561e+02
2.748744e+02
2.718963e+02
2.698900e+02
2.679197e+02
2.659321e+02
2.638681e+02
2.613083e+02
2.583026e+02
2.554581e+02
2.524750e+02
2.491917e+02
2.465300e+02
2.430484e+02
2.397100e+02
2.367792e+02
2.342095e+02
2.317238e+02
2.290566e+02
2.263623e+02
2.236934e+02
2.205847e+02
2.173565e+02
2.136670e+02
2.100613e+02
2.074572e+02
2.054258e+02
2.032756e+02
2.009719e+02
1.983784e+02
1.960312e+02
1.937895e+02
1.917015e+02
1.890139e+02
1.866697e+02
1.838517e+02
1.806020e+02
1.775637e+02
1.748548e+02
1.719918e+02
1.690512e+02
1.654452e+02
1.617098e+02
1.582308e+02
1.551013e+02
1.519318e+02
1.489872e+02
1.463922e+02
1.439866e+02
1.419811e+02
1.400010e+02
1.380861e+02
1.362857e+02
1.346690e+02
1.330493e+02
1.312884e+02
1.291304e+02
1.268271e+02
1.243200e+02
1.219385e+02
1.198488e+02
1.178861e+02
1.162083e+02
1.145499e+02
1.127421e+02
1.102952e+02
1.064568e+02
1.014891e+02
1.165451e+02
1.848133e+02
2.439294e+02
3.043814e+02
3.211191e+02
2.932909e+02
1.098678e+01
-5.533596e+01
-5.201671e+01
-5.100409e+01
-4.923598e+01
-4.715042e+01
-4.519567e+01
-4.318002e+01
-4.118640e+01
-3.933897e+01
-3.749401e+01
-3.559494e+01
-3.368524e+01
-3.212109e+01
-3.067098e+01
-2.904159e+01
-2.726258e+01
-2.558449e+01
-2.380495e+01
-2.172396e+01
-1.967430e+01
-1.800862e+01
-1.617640e+01
-1.374348e+01
-1.111087e+01
-8.298162e+00
-5.398765e+00
-2.197353e+00
1.370098e+00
5.242326e+00
9.151556e+00
1.309737e+01
1.754411e+01
2.226694e+01
2.653906e+01
3.144755e+01
3.729962e+01
4.277310e+01
4.766835e+01
5.214988e+01
5.612748e+01
6.002467e+01
6.414166e+01
6.853013e+01
7.374313e+01
7.938559e+01
8.526011e+01
9.134048e+01
9.744205e+01
1.029849e+02
1.079802e+02
1.130172e+02
1.178001e+02
1.220317e+02
1.260497e+02
1.300192e+02
1.351511e+02
1.409000e+02
1.471289e+02
1.529429e+02
1.582208e+02
1.631288e+02
1.686969e+02
1.738597e+02
1.790030e+02
1.842504e+02
1.909429e+02
1.969646e+02
2.016760e+02
2.070140e+02
2.130627e+02
2.197220e+02
2.261118e+02
2.317504e+02
2.363491e+02
2.380835e+02
2.392797e+02
2.406408e+02
2.423222e+02
2.437721e+02
2.459716e+02
2.482552e+02
2.498121e+02
2.515544e+02
2.523988e+02
2.535806e+02
2.537896e+02
2.524443e+02
2.502522e+02
2.491310e+02
2.495219e+02
2.501884e+02
2.511677e+02
2.512012e+02
2.516233e+02
2.509249e+02
2.485691e+02
2.451586e+02
2.408384e+02
2.369568e+02
2.340129e+02
2.304445e+02
2.275496e+02
2.247699e+02
2.225100e+02
2.193019e+02
2.156154e+02
2.115290e+02
2.079138e+02
2.048216e+02
2.024366e+02
2.005428e+02
1.988491e+02
1.970233e+02
1.949220e+02
1.927946e+02
1.905393e+02
1.885002e+02
1.873409e+02
1.866618e+02
1.862549e+02
1.855004e+02
1.847440e+02
1.834005e+02
1.822122e+02
1.807924e+02
1.795269e+02
1.789534e+02
1.789309e+02
1.785983e+02
1.780360e+02
1.770816e+02
1.759046e+02
1.750901e+02
1.739929e+02
1.727877e+02
1.716744e+02
1.701475e+02
1.686745e+02
1.671419e+02
1.653762e+02
1.640509e+02
1.627580e+02
1.612751e+02
1.597450e+02
1.579036e+02
1.554948e+02
1.532955e+02
1.515347e+02
1.498087e+02
1.485825e+02
1.470225e+02
1.453574e+02
1.437934e+02
1.420524e+02
1.401826e+02
1.382698e+02
1.366022e+02
1.348299e+02
1.330644e+02
1.311384e+02
1.288072e+02
1.264192e+02
1.245153e+02
1.223954e+02
1.201333e+02
1.178596e+02
1.154687e+02
1.129610e+02
1.103569e+02
1.080465e+02
1.054867e+02
1.015601e+02
9.593845e+01
1.158312e+02
1.746988e+02
2.253009e+02
2.722319e+02
2.749253e+02
2.821855e+02
1.545629e+01
-4.849713e+01
-4.516529e+01
-4.616221e+01
-4.576047e+01
-4.426958e+01
-4.264230e+01
-4.129117e+01
-3.964897e+01
-3.798261e+01
-3.617691e+01
-3.401298e+01
-3.191738e+01
-2.936822e+01
-2.668956e+01
-2.396306e+01
-2.108017e+01
-1.764383e+01
-1.379494e+01
-1.001973e+01
-6.178479e+00
-2.298856e+00
1.465484e+00
5.380504e+00
9.539957e+00
1.359042e+01
1.846666e+01
2.361938e+01
2.928896e+01
3.572258e+01
4.235818e+01
4.917462e+01
5.567716e+01
6.241918e+01
6.903053e+01
7.546272e+01
8.198150e+01
8.809883e+01
9.347427e+01
9.867821e+01
1.036618e+02
1.092084e+02
1.151303e+02
1.220042e+02
1.294726e+02
1.365694e+02
1.429573e+02
1.493597e+02
1.553764e+02
1.607106e+02
1.653912e+02
1.689069e+02
1.720893e+02
1.761325e+02
1.817712e+02
1.887057e+02
1.968358e+02
2.050666e+02
2.125105e+02
2.208320e+02
2.282945e+02
2.341032e+02
2.382584e+02
2.416443e+02
2.434866e+02
2.444715e+02
2.445829e+02
2.444079e+02
2.448269e+02
2.433956e+02
2.423135e+02
2.420735e+02
2.425321e+02
2.430568e+02
2.436263e+02
2.470985e+02
2.506743e+02
2.534057e+02
2.549964e+02
2.578952e+02
2.618255e+02
2.648741e+02
2.664780e+02
2.680182e+02
2.679672e+02
2.674738e+02
2.675583e+02
2.684803e+02
2.687025e+02
2.683310e+02
2.685756e+02
2.687093e+02
2.675185e+02
2.655899e+02
2.617847e+02
2.573419e+02
2.518162e+02
2.446559e+02
2.373183e+02
2.308129e+02
2.247093e+02
2.175353e+02
2.111443e+02
2.053240e+02
2.007613e+02
1.967722e+02
1.927707e+02
1.897633e+02
1.864479e+02
1.835499e+02
1.812525e+02
1.790976e+02
1.769285e+02
1.749327e+02
1.729747e+02
1.712095e+02
1.693926e+02
1.672809e+02
1.643439e+02
1.614717e+02
1.584108e+02
1.570026e+02
1.556044e+02
1.548114e+02
1.544843e+02
1.543353e+02
1.538806e+02
1.535253e+02
1.528694e+02
1.520513e+02
1.510436e+02
1.504069e+02
1.504888e+02
1.511118e+02
1.522576e+02
1.532117e+02
1.535943e+02
1.527782e+02
1.509112e+02
1.492688e+02
1.480551e+02
1.467822e+02
1.455383e+02
1.443700e+02
1.431828e+02
1.422039e+02
1.411380e+02
1.400968e+02
1.392053e+02
1.380549e+02
1.368430e+02
1.364245e+02
1.364260e+02
1.361139e+02
1.353213e+02
1.339853e+02
1.324971e+02
1.310164e+02
1.292325e+02
1.273338e+02
1.250440e+02
1.222352e+02
1.194256e+02
1.167627e+02
1.145537e+02
1.124429e+02
1.103964e+02
1.084701e+02
1.066454e+02
1.048770e+02
1.030254e+02
1.009620e+02
9.710429e+01
9.069959e+01
1.141010e+02
1.634737e+02
2.086899e+02
2.467906e+02
2.553111e+02
2.677430e+02
3.165017e+01
-4.083598e+01
-3.833463e+01
-3.943103e+01
-3.956392e+01
-3.836335e+01
-3.701022e+01
-3.553730e+01
-3.378835e+01
-3.192222e+01
-2.974537e+01
-2.719894e+01
-2.467328e+01
-2.181302e+01
-1.825994e+01
-1.394993e+01
-9.535471e+00
-5.275346e+00
-5.990235e-01
4.125170e+00
9.118206e+00
1.387254e+01
1.914630e+01
2.485467e+01
3.177487e+01
3.792764e+01
4.437936e+01
5.140936e+01
5.823961e+01
6.516010e+01
7.203531e+01
7.909924e+01
8.641100e+01
9.394741e+01
1.012000e+02
1.084226e+02
1.161641e+02
1.239433e+02
1.310856e+02
1.381889e+02
1.451724e+02
1.517482e+02
1.586226e+02
1.651727e+02
1.719477e+02
1.793501e+02
1.874528e+02
1.951579e+02
2.023101e+02
2.090293e+02
2.163895e+02
2.228165e+02
2.293202e+02
2.357638e+02
2.415670e+02
2.490462e+02
2.581813e+02
2.693485e+02
2.795282e+02
2.887041e+02
2.952717e+02
2.999152e+02
3.024207e+02
3.047265e+02
3.061594e+02
3.075243e+02
3.085244e+02
3.099435e+02
3.102390e+02
3.083485e+02
3.071495e+02
3.054432e+02
3.021079e+02
2.988048e+02
2.948741e+02
2.931676e+02
2.935110e+02
2.954038e+02
2.978823e+02
3.010001e+02
3.039897e+02
3.057576e+02
3.066386e+02
3.076863e+02
3.077169e+02
3.088535e+02
3.089788e+02
3.085764e+02
3.077463e+02
3.070073e+02
3.053579e+02
3.032069e+02
3.001624e+02
2.965407e+02
2.917284e+02
2.854243e+02
2.787439e+02
2.696377e+02
2.608889e+02
2.532163e+02
2.453506e+02
2.359110e+02
2.262006e+02
2.184685e+02
2.115428e+02
2.059931e+02
2.003872e+02
1.944509e+02
1.895846e+02
1.861751e+02
1.827909e+02
1.797386e+02
1.772723e+02
1.743678e+02
1.711798e+02
1.680516e+02
1.648343e+02
1.615629e+02
1.592250e+02
1.572125e+02
1.552712e+02
1.535798e+02
1.523215e+02
1.510621e+02
1.507863e+02
1.496046e+02
1.485188e+02
1.482009e+02
1.468204e+02
1.454940e+02
1.443504e+02
1.422348e+02
1.405109e+02
1.391692e+02
1.392829e+02
1.402938e+02
1.408030e+02
1.401610e+02
1.392169e+02
1.384202e+02
1.372962e+02
1.359271e+02
1.348426e+02
1.339475e+02
1.327949e+02
1.314994e+02
1.303194e+02
1.295780e+02
1.287507e+02
1.283208e+02
1.285583e+02
1.285297e+02
1.286691e+02
1.282393e+02
1.271396e+02
1.256796e+02
1.242372e+02
1.228808e+02
1.213448e+02
1.193179e+02
1.170320e+02
1.146953e+02
1.125403e+02
1.107563e+02
1.090801e+02
1.074906e+02
1.060507e+02
1.045631e+02
1.029722e+02
1.012699e+02
9.932799e+01
9.738635e+01
9.372597e+01
8.632406e+01
1.077872e+02
1.557365e+02
1.941798e+02
2.409522e+02
2.451752e+02
2.585782e+02
5.758643e+01
-3.005510e+01
-2.951142e+01
-3.047956e+01
-3.044318e+01
-2.942456e+01
-2.795276e+01
-2.652994e+01
-2.489274e+01
-2.271710e+01
-2.007589e+01
-1.712518e+01
-1.362018e+01
-9.669194e+00
-5.371919e+00
-6.667020e-01
4.217318e+00
9.344821e+00
1.500725e+01
2.129425e+01
2.781477e+01
3.540949e+01
4.274817e+01
4.989669e+01
5.728289e+01
6.562996e+01
7.386934e+01
8.202107e+01
8.935472e+01
9.627289e+01
1.030761e+02
1.106696e+02
1.184532e+02
1.260203e+02
1.343083e+02
1.426024e+02
1.518605e+02
1.609213e+02
1.689662e+02
1.753871e+02
1.817305e+02
1.888952e+02
1.965089e+02
2.042959e+02
2.124086e+02
2.213789e+02
2.318871e+02
2.419363e+02
2.522241e+02
2.622048e+02
2.713602e+02
2.783960e+02
2.861166e+02
2.955055e+02
3.041237e+02
3.122485e+02
3.200829e+02
3.271150e+02
3.352720e+02
3.447024e+02
3.519249e+02
3.569646e+02
3.601968e+02
3.615922e+02
3.628462e+02
3.646699e+02
3.668295e+02
3.694702e+02
3.722635e+02
3.724458e+02
3.712636e+02
3.680961e+02
3.643842e+02
3.599267e+02
3.541540e+02
3.501623e+02
3.483760e+02
3.481417e+02
3.499660e+02
3.518914e+02
3.534234e+02
3.530856e+02
3.532947e+02
3.528867e+02
3.515357e+02
3.500552e+02
3.492212e+02
3.481894e+02
3.457155e+02
3.432467e+02
3.411101e+02
3.389602e+02
3.363966e+02
3.328268e+02
3.278160e+02
3.200851e+02
3.113162e+02
3.016608e+02
2.900833e+02
2.774656e+02
2.657372e+02
2.524865e+02
2.427253e+02
2.346542e+02
2.273099e+02
2.208708e+02
2.162370e+02
2.112353e+02
2.061829e+02
2.015199e+02
1.969784e+02
1.925281e+02
1.882854e+02
1.837706e+02
1.793685e+02
1.749408e+02
1.706904e+02
1.667950e+02
1.630255e+02
1.594872e+02
1.559801e+02
1.529005e+02
1.502027e+02
1.479798e+02
1.461499e+02
1.453877e+02
1.449198e+02
1.447018e+02
1.441958e+02
1.437293e+02
1.427972e+02
1.416160e+02
1.396013e+02
1.379547e+02
1.373469e+02
1.379758e+02
1.378886e+02
1.372626e+02
1.368574e+02
1.362888e+02
1.351366e+02
1.346093e+02
1.343672e+02
1.341242e+02
1.336336e+02
1.328093e+02
1.317010e+02
1.309841e+02
1.306018e+02
1.305738e+02
1.306541e+02
1.306982e+02
1.299759e+02
1.287487e+02
1.270340e+02
1.253578e+02
1.238241e+02
1.225436e+02
1.210269e+02
1.191500e+02
1.170154e+02
1.150392e+02
1.132000e+02
1.117688e+02
1.104472e+02
1.090925e+02
1.075547e+02
1.060728e+02
1.046316e+02
1.031563e+02
1.016257e+02
1.000800e+02
9.649658e+01
8.724905e+01
1.057183e+02
1.552891e+02
1.938813e+02
2.404893e+02
2.423112e+02
2.540945e+02
9.480873e+01
-1.662360e+01
-1.745517e+01
-2.083678e+01
-2.061518e+01
-1.910731e+01
-1.741499e+01
-1.538389e+01
-1.315908e+01
-1.038747e+01
-6.639637e+00
-2.225595e+00
2.606100e+00
7.583516e+00
1.327582e+01
1.903529e+01
2.528545e+01
3.146632e+01
3.809674e+01
4.559224e+01
5.365226e+01
6.229459e+01
7.050072e+01
7.923649e+01
8.832220e+01
9.693881e+01
1.059092e+02
1.149874e+02
1.230752e+02
1.307313e+02
1.387752e+02
1.477665e+02
1.568805e+02
1.659605e+02
1.749828e+02
1.838393e+02
1.922191e+02
2.009448e+02
2.090245e+02
2.179575e+02
2.255869e+02
2.326909e+02
2.409253e+02
2.512748e+02
2.620229e+02
2.731659e+02
2.843973e+02
2.949819e+02
3.055337e+02
3.141556e+02
3.225849e+02
3.316631e+02
3.409993e+02
3.487964e+02
3.572106e+02
3.648790e+02
3.720719e+02
3.810605e+02
3.911191e+02
3.998691e+02
4.072277e+02
4.120451e+02
4.153696e+02
4.171686e+02
4.190178e+02
4.221957e+02
4.274846e+02
4.324765e+02
4.361744e+02
4.385867e+02
4.395879e+02
4.382861e+02
4.351845e+02
4.305162e+02
4.247656e+02
4.190180e+02
4.144516e+02
4.125937e+02
4.116556e+02
4.101874e+02
4.083457e+02
4.050584e+02
4.029677e+02
4.013477e+02
3.972987e+02
3.940900e+02
3.910316e+02
3.872681e+02
3.847560e+02
3.819556e+02
3.783510e+02
3.743899e+02
3.699731e+02
3.649997e+02
3.581370e+02
3.500525e+02
3.413492e+02
3.308094e+02
3.175388e+02
3.032795e+02
2.892075e+02
2.763966e+02
2.633479e+02
2.521447e+02
2.432691e+02
2.351363e+02
2.280647e+02
2.240638e+02
2.203839e+02
2.165530e+02
2.118576e+02
2.060701e+02
2.005230e+02
1.952392e+02
1.899797e+02
1.844691e+02
1.791801e+02
1.747214e+02
1.704173e+02
1.658247e+02
1.612847e+02
1.568070e+02
1.527138e+02
1.496114e+02
1.470421e+02
1.445694e+02
1.423115e+02
1.407416e+02
1.395137e+02
1.386016e+02
1.384658e+02
1.390360e+02
1.391939e+02
1.394342e+02
1.399507e+02
1.394991e+02
1.393557e+02
1.388667e+02
1.384205e+02
1.370990e+02
1.360654e+02
1.364154e+02
1.366704e+02
1.369530e+02
1.369250e+02
1.363964e+02
1.358295e+02
1.357642e+02
1.360342e+02
1.362316e+02
1.358497e+02
1.350963e+02
1.340672e+02
1.325213e+02
1.309162e+02
1.293308e+02
1.278765e+02
1.265832e+02
1.250242e+02
1.232376e+02
1.211836e+02
1.194678e+02
1.178575e+02
1.162052e+02
1.144266e+02
1.127429e+02
1.113385e+02
1.099712e+02
1.086138e+02
1.071153e+02
1.055582e+02
1.039544e+02
1.004733e+02
9.203771e+01
1.058244e+02
1.572298e+02
1.966815e+02
2.417827e+02
2.428266e+02
2.517725e+02
1.559467e+02
7.070030e-01
-3.784725e+00
-7.730838e+00
-7.401028e+00
-5.660303e+00
-3.230943e+00
-2.124035e-01
3.711556e+00
8.008563e+00
1.303177e+01
1.840647e+01
2.408957e+01
3.035510e+01
3.680966e+01
4.418299e+01
5.247513e+01
6.131966e+01
7.081387e+01
8.025126e+01
8.891711e+01
9.808384e+01
1.075046e+02
1.168553e+02
1.259036e+02
1.352518e+02
1.447453e+02
1.538535e+02
1.626529e+02
1.723029e+02
1.817900e+02
1.921541e+02
2.024612e+02
2.127566e+02
2.225103e+02
2.313033e+02
2.394559e+02
2.471011e+02
2.558198e+02
2.652441e+02
2.742012e+02
2.829466e+02
2.923905e+02
3.036085e+02
3.149131e+02
3.254241e+02
3.359948e+02
3.459594e+02
3.550016e+02
3.636874e+02
3.698518e+02
3.774946e+02
3.879393e+02
4.006986e+02
4.128004e+02
4.230650e+02
4.313631e+02
4.398392e+02
4.476170e+02
4.549691e+02
4.603960e+02
4.643625e+02
4.675533e+02
4.708161e+02
4.761459e+02
4.825536e+02
4.886601e+02
4.943068e+02
5.002435e+02
5.042949e+02
5.054803e+02
5.045364e+02
5.001557e+02
4.940085e+02
4.875838e+02
4.822981e+02
4.769535e+02
4.713930e+02
4.673401e+02
4.635185e+02
4.612334e+02
4.600645e+02
4.585159e+02
4.548606e+02
4.495131e+02
4.447777e+02
4.400313e+02
4.337284e+02
4.277350e+02
4.232111e+02
4.184855e+02
4.125073e+02
4.045858e+02
3.948474e+02
3.843474e+02
3.738172e+02
3.632339e+02
3.524764e+02
3.394673e+02
3.242407e+02
3.091869e+02
2.956939e+02
2.826141e+02
2.704771e+02
2.597097e+02
2.511827e+02
2.444984e+02
2.378258e+02
2.317176e+02
2.262775e+02
2.202715e+02
2.145456e+02
2.092274e+02
2.041572e+02
1.982631e+02
1.928477e+02
1.871183e+02
1.812218e+02
1.756880e+02
1.698928e+02
1.643159e+02
1.593330e+02
1.551554e+02
1.514322e+02
1.482780e+02
1.460606e+02
1.444118e+02
1.425993e+02
1.414297e+02
1.395924e+02
1.384274e+02
1.378049e+02
1.377049e+02
1.392342e+02
1.418559e+02
1.432596e+02
1.434602e+02
1.441261e+02
1.433530e+02
1.434538e+02
1.436150e+02
1.432850e+02
1.418934e+02
1.414760e+02
1.412505e+02
1.412453e+02
1.414178e+02
1.417562e+02
1.413327e+02
1.405322e+02
1.396402e+02
1.385527e+02
1.371047e+02
1.355773e+02
1.340673e+02
1.326583e+02
1.313243e+02
1.301562e+02
1.287883e+02
1.273050e+02
1.256974e+02
1.243576e+02
1.228960e+02
1.214273e+02
1.198773e+02
1.181013e+02
1.163640e+02
1.146427e+02
1.129182e+02
1.114658e+02
1.100280e+02
1.084197e+02
1.045250e+02
9.653353e+01
1.079134e+02
1.589139e+02
1.989904e+02
2.449204e+02
2.457465e+02
2.505633e+02
2.718227e+02
2.322985e+01
1.537219e+01
1.060226e+01
1.248102e+01
1.623119e+01
2.036330e+01
2.500134e+01
3.008946e+01
3.573951e+01
4.211067e+01
4.847488e+01
5.506852e+01
6.215071e+01
7.111360e+01
8.111051e+01
9.130191e+01
1.016815e+02
1.118544e+02
1.223654e+02
1.327289e+02
1.426183e+02
1.522098e+02
1.612977e+02
1.705006e+02
1.803028e+02
1.906096e+02
2.011312e+02
2.125057e+02
2.256275e+02
2.378656e+02
2.486367e+02
2.591709e+02
2.683306e+02
2.769008e+02
2.852592e+02
2.933748e+02
3.028162e+02
3.119093e+02
3.205696e+02
3.289088e+02
3.367127e+02
3.451884e+02
3.545772e+02
3.656418e+02
3.764303e+02
3.864242e+02
3.950420e+02
4.043534e+02
4.136798e+02
4.222046e+02
4.314512e+02
4.425444e+02
4.545429e+02
4.666710e+02
4.779592e+02
4.870964e+02
4.945229e+02
4.996122e+02
5.032429e+02
5.078486e+02
5.131280e+02
5.190893e+02
5.243311e+02
5.292690e+02
5.343489e+02
5.411208e+02
5.482124e+02
5.540136e+02
5.572840e+02
5.580969e+02
5.554120e+02
5.519006e+02
5.471746e+02
5.421028e+02
5.366500e+02
5.302075e+02
5.231951e+02
5.154202e+02
5.085016e+02
5.037306e+02
5.012788e+02
4.988375e+02
4.956151e+02
4.910132e+02
4.853289e+02
4.800602e+02
4.735403e+02
4.658180e+02
4.568909e+02
4.481109e+02
4.397655e+02
4.304819e+02
4.187349e+02
4.047529e+02
3.916509e+02
3.791416e+02
3.667372e+02
3.537809e+02
3.394589e+02
3.267035e+02
3.143842e+02
3.025207e+02
2.904029e+02
2.796540e+02
2.703113e+02
2.609043e+02
2.530233e+02
2.452659e+02
2.379552e+02
2.306721e+02
2.238466e+02
2.174957e+02
2.108609e+02
2.041399e+02
1.979132e+02
1.921717e+02
1.875043e+02
1.826770e+02
1.779779e+02
1.732314e+02
1.680213e+02
1.627829e+02
1.581124e+02
1.539663e+02
1.505981e+02
1.477471e+02
1.447777e+02
1.432176e+02
1.426898e+02
1.418880e+02
1.414952e+02
1.421808e+02
1.439725e+02
1.454560e+02
1.454159e+02
1.456227e+02
1.471036e+02
1.487695e+02
1.497412e+02
1.513324e+02
1.514576e+02
1.509460e+02
1.499572e+02
1.483702e+02
1.472773e+02
1.470371e+02
1.464580e+02
1.455355e+02
1.447259e+02
1.434901e+02
1.419173e+02
1.399956e+02
1.390118e+02
1.377616e+02
1.365597e+02
1.356187e+02
1.345183e+02
1.331268e+02
1.316668e+02
1.303010e+02
1.287408e+02
1.271955e+02
1.255123e+02
1.237775e+02
1.219983e+02
1.202444e+02
1.185226e+02
1.167038e+02
1.147796e+02
1.127343e+02
1.104075e+02
1.060387e+02
9.874634e+01
1.114837e+02
1.615470e+02
2.001945e+02
2.469468e+02
2.495521e+02
2.493967e+02
4.356269e+02
6.315168e+01
4.336819e+01
4.766193e+01
5.205652e+01
5.614148e+01
6.100423e+01
6.626682e+01
7.209163e+01
7.816828e+01
8.490905e+01
9.270993e+01
1.015788e+02
1.121240e+02
1.228515e+02
1.343978e+02
1.459385e+02
1.570511e+02
1.677260e+02
1.780912e+02
1.880135e+02
1.975432e+02
2.071642e+02
2.166950e+02
2.259828e+02
2.366028e+02
2.484464e+02
2.589815e+02
2.691263e+02
2.798972e+02
2.925567e+02
3.045294e+02
3.158890e+02
3.263771e+02
3.366617e+02
3.452534e+02
3.517947e+02
3.574496e+02
3.628728e+02
3.694622e+02
3.758012e+02
3.838764e+02
3.938876e+02
4.032020e+02
4.143032e+02