/*--------------------------------*- C++ -*----------------------------------*\
| =========                 |                                                 |
| \\      /  F ield         | OpenFOAM: The Open Source CFD Toolbox           |
|  \\    /   O peration     | Version:  v2406                                 |
|   \\  /    A nd           | Website:  www.openfoam.com                      |
|    \\/     M anipulation  |                                                 |
\*---------------------------------------------------------------------------*/
FoamFile
{
    version     2.0;
    format      ascii;
    class       volScalarField;
    location    "predicted";
    object      k;
}
// * * * * * * * * * * * * * * * * * * * * * * * * * * * * * * * * * * * * * //

dimensions      [0 2 -2 0 0 0 0];

internalField   nonuniform List<scalar>
49181
(
9.599506e-01
1.192636e+00
1.017035e+00
1.180116e+00
1.251775e+00
1.313540e+00
1.369746e+00
1.417977e+00
1.449938e+00
1.492780e+00
1.498255e+00
1.505476e+00
1.495145e+00
1.439759e+00
1.365996e+00
1.301259e+00
1.458509e+00
1.228540e+00
1.146675e+00
3.855067e-01
4.618868e-01
4.712059e-01
5.323071e-01
6.197539e-01
7.114680e-01
8.001907e-01
8.958387e-01
9.943052e-01
1.068575e+00
1.120320e+00
1.070906e+00
9.123436e-01
7.150088e-01
6.156595e-01
6.935444e-01
1.046243e+00
8.670581e-01
4.450775e-01
4.819359e-01
4.368538e-01
4.335089e-01
4.444139e-01
4.705618e-01
5.037926e-01
5.495572e-01
6.150652e-01
6.847463e-01
7.426342e-01
7.125713e-01
5.579815e-01
4.601439e-01
4.260783e-01
4.389929e-01
5.116131e-01
9.729772e-01
4.112273e-01
4.314209e-01
3.900673e-01
3.729270e-01
3.759747e-01
3.846720e-01
4.018383e-01
4.252061e-01
4.525420e-01
4.608589e-01
5.064693e-01
5.008663e-01
4.235374e-01
3.709774e-01
3.567988e-01
3.634410e-01
3.757065e-01
9.847294e-01
3.983251e-01
4.228119e-01
3.778764e-01
3.572950e-01
3.540931e-01
3.590010e-01
3.638109e-01
3.706840e-01
3.802260e-01
3.929291e-01
4.068808e-01
4.130605e-01
3.662029e-01
3.475857e-01
3.435501e-01
3.482670e-01
3.390891e-01
9.823570e-01
4.005875e-01
4.256159e-01
3.818415e-01
3.651579e-01
3.627257e-01
3.602074e-01
3.561028e-01
3.533126e-01
3.528196e-01
3.520010e-01
3.579074e-01
3.702304e-01
3.543352e-01
3.558313e-01
3.506356e-01
3.557747e-01
3.376550e-01
9.634842e-01
4.053960e-01
4.272738e-01
3.858114e-01
3.699332e-01
3.666018e-01
3.638203e-01
3.585820e-01
3.520443e-01
3.423409e-01
3.326374e-01
3.334321e-01
3.524179e-01
3.553262e-01
3.589432e-01
3.572383e-01
3.617808e-01
3.428742e-01
9.353697e-01
4.105577e-01
4.325535e-01
3.914345e-01
3.758334e-01
3.740131e-01
3.708737e-01
3.596908e-01
3.472943e-01
3.366899e-01
3.263908e-01
3.257454e-01
3.451273e-01
3.536853e-01
3.672681e-01
3.629535e-01
3.674461e-01
3.472426e-01
8.979780e-01
4.144631e-01
4.302232e-01
3.964242e-01
3.790186e-01
3.749674e-01
3.694839e-01
3.629418e-01
3.507849e-01
3.390926e-01
3.300972e-01
3.278964e-01
3.463063e-01
3.552569e-01
3.678136e-01
3.657512e-01
3.715607e-01
3.511879e-01
8.525573e-01
4.163814e-01
4.238641e-01
3.919400e-01
3.773511e-01
3.735357e-01
3.686991e-01
3.632289e-01
3.565999e-01
3.454342e-01
3.357856e-01
3.344076e-01
3.523603e-01
3.603909e-01
3.672157e-01
3.626827e-01
3.692566e-01
3.559123e-01
8.012369e-01
4.135655e-01
4.186626e-01
3.886655e-01
3.755378e-01
3.702083e-01
3.661905e-01
3.627694e-01
3.594288e-01
3.550083e-01
3.460801e-01
3.447457e-01
3.624304e-01
3.617889e-01
3.642877e-01
3.607712e-01
3.666073e-01
3.556677e-01
7.672130e-01
4.106722e-01
4.178252e-01
3.845793e-01
3.744364e-01
3.719082e-01
3.680272e-01
3.641606e-01
3.606080e-01
3.562898e-01
3.520308e-01
3.515577e-01
3.685095e-01
3.620196e-01
3.656353e-01
3.598883e-01
3.663994e-01
3.554048e-01
7.345543e-01
4.091898e-01
4.137738e-01
3.804936e-01
3.722661e-01
3.731042e-01
3.705305e-01
3.667953e-01
3.627729e-01
3.583637e-01
3.543088e-01
3.561634e-01
3.696036e-01
3.642024e-01
3.670522e-01
3.579693e-01
3.647880e-01
3.559892e-01
7.024942e-01
4.078396e-01
4.102123e-01
3.773777e-01
3.689988e-01
3.724042e-01
3.730488e-01
3.686811e-01
3.640528e-01
3.596491e-01
3.567467e-01
3.585369e-01
3.722385e-01
3.655510e-01
3.663995e-01
3.528294e-01
3.599846e-01
3.566940e-01
6.698031e-01
4.046898e-01
4.048077e-01
3.729585e-01
3.644300e-01
3.683416e-01
3.721985e-01
3.706472e-01
3.655820e-01
3.603908e-01
3.573127e-01
3.602024e-01
3.740621e-01
3.672485e-01
3.626475e-01
3.453168e-01
3.521642e-01
3.562981e-01
6.402713e-01
4.006369e-01
3.989356e-01
3.670771e-01
3.591110e-01
3.635095e-01
3.677200e-01
3.701879e-01
3.672614e-01
3.621244e-01
3.590470e-01
3.622980e-01
3.758955e-01
3.686289e-01
3.565977e-01
3.398279e-01
3.468903e-01
3.528388e-01
6.096384e-01
3.947670e-01
3.915575e-01
3.601473e-01
3.549706e-01
3.591309e-01
3.634434e-01
3.665659e-01
3.688469e-01
3.662952e-01
3.627926e-01
3.658329e-01
3.794761e-01
3.685447e-01
3.516751e-01
3.354068e-01
3.421887e-01
3.477086e-01
5.819395e-01
3.866979e-01
3.814069e-01
3.528083e-01
3.487450e-01
3.541711e-01
3.586361e-01
3.630765e-01
3.670836e-01
3.695127e-01
3.694676e-01
3.730041e-01
3.858651e-01
3.652999e-01
3.464234e-01
3.289889e-01
3.366756e-01
3.446645e-01
5.835456e-01
3.700726e-01
3.710266e-01
3.428552e-01
3.392658e-01
3.441466e-01
3.502527e-01
3.558075e-01
3.607323e-01
3.652729e-01
3.703022e-01
3.774895e-01
3.871246e-01
3.596180e-01
3.386156e-01
3.228622e-01
3.306174e-01
3.389306e-01
6.732330e-01
3.700710e-01
3.529270e-01
3.293837e-01
3.260992e-01
3.313447e-01
3.378466e-01
3.445721e-01
3.500739e-01
3.546330e-01
3.603192e-01
3.682786e-01
3.777969e-01
3.501896e-01
3.285191e-01
3.137108e-01
3.203624e-01
3.275284e-01
8.169359e-01
4.334967e-01
3.675240e-01
3.265846e-01
3.274826e-01
3.340777e-01
3.400813e-01
3.448252e-01
3.498035e-01
3.543493e-01
3.577639e-01
3.636956e-01
3.760592e-01
3.488216e-01
3.292906e-01
3.139241e-01
3.205330e-01
3.415629e-01
1.052236e+00
6.589954e-01
4.652532e-01
3.827886e-01
3.778409e-01
3.824492e-01
3.866851e-01
3.878820e-01
3.854795e-01
3.807011e-01
3.782257e-01
3.819756e-01
3.958905e-01
3.847164e-01
3.709487e-01
3.592614e-01
3.797839e-01
3.924885e-01
1.237099e+00
6.559842e-01
4.931362e-01
3.823421e-01
3.748897e-01
3.801800e-01
3.818657e-01
3.780321e-01
3.730950e-01
3.684503e-01
3.658099e-01
3.701365e-01
3.836766e-01
3.731170e-01
3.663418e-01
3.560412e-01
3.722206e-01
3.889809e-01
1.274589e+00
6.479798e-01
4.879554e-01
3.724278e-01
3.657518e-01
3.716471e-01
3.737038e-01
3.695307e-01
3.643840e-01
3.594728e-01
3.567687e-01
3.609577e-01
3.751467e-01
3.639960e-01
3.573137e-01
3.462576e-01
3.635985e-01
3.754596e-01
1.255749e+00
6.357785e-01
4.780850e-01
3.667182e-01
3.608843e-01
3.667010e-01
3.704306e-01
3.683159e-01
3.634957e-01
3.584572e-01
3.558810e-01
3.600808e-01
3.741315e-01
3.629060e-01
3.523860e-01
3.414663e-01
3.599832e-01
3.731547e-01
1.249279e+00
6.213374e-01
4.688478e-01
3.631400e-01
3.585364e-01
3.650538e-01
3.683942e-01
3.695327e-01
3.654792e-01
3.599159e-01
3.574619e-01
3.616364e-01
3.756814e-01
3.636981e-01
3.494806e-01
3.384939e-01
3.566533e-01
3.737815e-01
1.281217e+00
6.296688e-01
4.707548e-01
3.732965e-01
3.684349e-01
3.733366e-01
3.750516e-01
3.759062e-01
3.744973e-01
3.687138e-01
3.650034e-01
3.694538e-01
3.822701e-01
3.664181e-01
3.531285e-01
3.430500e-01
3.586170e-01
3.823102e-01
1.354202e+00
6.342778e-01
4.983624e-01
4.079508e-01
3.990288e-01
4.033200e-01
4.028891e-01
4.005977e-01
3.969756e-01
3.920505e-01
3.885349e-01
3.899126e-01
4.042691e-01
3.766352e-01
3.665570e-01
3.480402e-01
3.727763e-01
3.897243e-01
1.417866e+00
6.219448e-01
5.145458e-01
4.279807e-01
4.137032e-01
4.189997e-01
4.198872e-01
4.202039e-01
4.227434e-01
4.328546e-01
4.490459e-01
4.697669e-01
4.633788e-01
4.296664e-01
4.001993e-01
3.919784e-01
4.132644e-01
4.614870e-01
9.283456e-01
1.033733e+00
9.069563e-01
8.516169e-01
8.808567e-01
9.393208e-01
9.904256e-01
1.048104e+00
1.139544e+00
1.293009e+00
1.407668e+00
1.461251e+00
1.462572e+00
1.427086e+00
1.403603e+00
1.419345e+00
1.435038e+00
1.495709e+00
-8.836846e-02
2.939911e-01
3.650448e-01
3.164503e-01
3.263590e-01
3.343644e-01
3.436307e-01
3.517556e-01
3.590651e-01
3.663242e-01
3.741404e-01
3.816059e-01
3.893749e-01
3.968297e-01
4.040672e-01
4.111820e-01
4.184002e-01
4.257829e-01
4.349938e-01
4.432310e-01
4.499085e-01
4.570268e-01
4.635405e-01
4.688968e-01
4.740639e-01
4.814185e-01
4.892612e-01
4.977650e-01
5.068087e-01
5.174424e-01
5.291866e-01
5.409569e-01
5.519659e-01
5.639633e-01
5.770173e-01
5.919142e-01
6.091595e-01
6.254786e-01
6.430717e-01
6.626919e-01
6.830500e-01
7.028420e-01
7.243604e-01
7.470275e-01
7.668285e-01
7.851856e-01
8.053438e-01
8.228858e-01
8.412644e-01
8.604347e-01
8.806299e-01
8.992100e-01
9.159945e-01
9.310090e-01
9.416498e-01
9.495842e-01
9.552169e-01
9.613017e-01
9.665923e-01
9.706985e-01
9.705393e-01
9.659477e-01
9.582447e-01
9.486168e-01
9.344302e-01
9.185350e-01
9.027675e-01
8.901934e-01
8.816088e-01
8.799711e-01
8.760978e-01
8.720383e-01
8.678433e-01
8.657296e-01
8.610073e-01
8.587738e-01
8.584265e-01
8.567722e-01
8.542615e-01
8.503873e-01
8.456825e-01
8.427461e-01
8.414657e-01
8.375046e-01
8.377137e-01
8.395297e-01
8.437720e-01
8.473030e-01
8.518497e-01
8.612292e-01
8.729516e-01
8.829816e-01
8.907132e-01
9.012607e-01
9.095112e-01
9.185574e-01
9.299507e-01
9.372242e-01
9.474184e-01
9.525706e-01
9.526555e-01
9.497109e-01
9.460475e-01
9.405507e-01
9.365865e-01
9.339538e-01
9.307911e-01
9.294096e-01
9.277557e-01
9.256646e-01
9.205240e-01
9.145664e-01
9.055200e-01
8.943318e-01
8.833334e-01
8.730103e-01
8.632332e-01
8.522109e-01
8.406920e-01
8.265945e-01
8.093285e-01
7.934927e-01
7.775228e-01
7.622773e-01
7.482862e-01
7.368631e-01
7.274685e-01
7.172940e-01
7.067471e-01
6.967546e-01
6.867430e-01
6.749503e-01
6.599901e-01
6.459499e-01
6.335952e-01
6.207774e-01
6.087677e-01
5.969260e-01
5.841901e-01
5.756236e-01
5.700156e-01
5.659424e-01
5.621393e-01
5.579952e-01
5.546786e-01
5.513439e-01
5.480297e-01
5.436840e-01
5.388904e-01
5.320815e-01
5.248405e-01
5.160526e-01
5.061189e-01
4.950768e-01
4.843829e-01
4.731383e-01
4.618600e-01
4.509724e-01
4.396089e-01
4.269768e-01
4.116796e-01
3.955327e-01
3.794490e-01
3.642415e-01
3.487953e-01
3.335266e-01
3.181964e-01
3.028881e-01
2.866325e-01
2.703852e-01
2.553402e-01
2.422182e-01
2.397862e-01
2.580945e-01
2.708118e-01
4.495279e-01
5.698086e-01
7.432575e-01
7.791790e-01
7.101213e-01
2.897945e-01
1.480960e-01
1.056663e-01
1.580427e-01
1.726767e-01
1.868977e-01
2.020572e-01
2.172952e-01
2.322551e-01
2.465291e-01
2.605145e-01
2.729639e-01
2.843645e-01
2.956722e-01
3.066782e-01
3.175244e-01
3.285492e-01
3.401870e-01
3.524527e-01
3.658221e-01
3.793042e-01
3.932057e-01
4.075065e-01
4.230437e-01
4.381989e-01
4.525519e-01
4.692354e-01
4.866386e-01
5.041598e-01
5.206146e-01
5.380389e-01
5.574824e-01
5.795455e-01
6.018105e-01
6.247495e-01
6.483667e-01
6.714441e-01
6.935674e-01
7.145116e-01
7.350708e-01
7.601758e-01
7.854756e-01
8.080434e-01
8.336612e-01
8.608196e-01
8.909238e-01
9.233019e-01
9.568689e-01
9.910448e-01
1.025844e+00
1.060612e+00
1.094988e+00
1.129379e+00
1.163838e+00
1.198450e+00
1.230762e+00
1.263419e+00
1.293754e+00
1.326911e+00
1.359342e+00
1.389479e+00
1.416131e+00
1.444686e+00
1.476662e+00
1.508478e+00
1.537249e+00
1.556990e+00
1.567290e+00
1.570352e+00
1.569162e+00
1.567540e+00
1.566580e+00
1.566824e+00
1.562073e+00
1.556688e+00
1.550558e+00
1.547806e+00
1.542544e+00
1.538799e+00
1.532419e+00
1.527283e+00
1.520832e+00
1.516388e+00
1.512688e+00
1.513218e+00
1.514985e+00
1.512256e+00
1.502597e+00
1.487729e+00
1.470787e+00
1.451875e+00
1.433381e+00
1.413598e+00
1.394595e+00
1.379365e+00
1.370251e+00
1.363755e+00
1.354894e+00
1.341072e+00
1.319956e+00
1.295713e+00
1.277333e+00
1.255511e+00
1.233007e+00
1.208282e+00
1.183651e+00
1.162782e+00
1.144130e+00
1.123936e+00
1.100988e+00
1.078209e+00
1.056936e+00
1.037846e+00
1.019448e+00
1.002028e+00
9.832682e-01
9.679149e-01
9.515298e-01
9.324598e-01
9.138353e-01
8.948578e-01
8.737673e-01
8.533627e-01
8.345586e-01
8.163665e-01
8.004064e-01
7.824649e-01
7.621258e-01
7.419630e-01
7.222085e-01
7.033325e-01
6.873141e-01
6.741617e-01
6.617766e-01
6.516732e-01
6.428845e-01
6.319059e-01
6.184120e-01
6.040816e-01
5.906149e-01
5.790664e-01
5.696271e-01
5.604163e-01
5.520327e-01
5.424315e-01
5.344008e-01
5.258178e-01
5.179703e-01
5.097263e-01
4.990257e-01
4.840395e-01
4.675762e-01
4.502366e-01
4.333765e-01
4.185788e-01
4.026132e-01
3.854546e-01
3.682969e-01
3.506016e-01
3.330805e-01
3.160188e-01
2.997287e-01
2.833008e-01
2.661625e-01
2.481027e-01
2.295148e-01
2.122625e-01
1.949345e-01
1.779716e-01
1.611345e-01
1.448771e-01
1.324535e-01
1.328766e-01
1.131288e-01
2.348102e-01
3.801137e-01
6.614759e-01
9.425586e-01
9.933112e-01
8.602598e-01
3.670307e-01
1.243987e-01
1.987433e-01
2.226584e-01
2.345095e-01
2.495943e-01
2.658639e-01
2.824208e-01
2.990139e-01
3.150216e-01
3.312139e-01
3.478343e-01
3.654155e-01
3.828520e-01
4.000211e-01
4.163855e-01
4.325595e-01
4.511729e-01
4.702640e-01
4.896119e-01
5.083065e-01
5.265597e-01
5.451446e-01
5.636963e-01
5.834133e-01
6.049809e-01
6.280836e-01
6.524141e-01
6.776865e-01
7.041626e-01
7.331268e-01
7.707883e-01
8.125984e-01
8.541034e-01
8.945066e-01
9.369127e-01
9.829888e-01
1.029042e+00
1.073214e+00
1.117568e+00
1.159734e+00
1.202695e+00
1.247351e+00
1.291611e+00
1.336873e+00
1.384042e+00
1.430222e+00
1.475020e+00
1.519521e+00
1.564647e+00
1.606469e+00
1.645612e+00
1.683637e+00
1.720934e+00
1.760684e+00
1.801510e+00
1.845544e+00
1.891413e+00
1.940809e+00
1.987538e+00
2.033434e+00
2.077751e+00
2.119071e+00
2.156274e+00
2.190108e+00
2.222593e+00
2.247694e+00
2.256586e+00
2.258321e+00
2.255356e+00
2.249272e+00
2.244679e+00
2.243382e+00
2.246472e+00
2.250030e+00
2.261838e+00
2.278596e+00
2.296049e+00
2.314954e+00
2.333902e+00
2.346698e+00
2.356696e+00
2.362954e+00
2.368174e+00
2.368871e+00
2.364180e+00
2.356258e+00
2.342831e+00
2.325737e+00
2.305153e+00
2.279226e+00
2.244979e+00
2.208202e+00
2.162285e+00
2.118648e+00
2.072062e+00
2.023440e+00
1.979570e+00
1.934731e+00
1.893055e+00
1.856606e+00
1.826804e+00
1.794901e+00
1.768433e+00
1.742885e+00
1.718107e+00
1.697355e+00
1.676694e+00
1.659389e+00
1.643537e+00
1.626399e+00
1.607736e+00
1.588453e+00
1.566875e+00
1.544711e+00
1.521571e+00
1.498050e+00
1.473104e+00
1.444190e+00
1.413463e+00
1.382304e+00
1.354750e+00
1.328002e+00
1.301096e+00
1.276439e+00
1.250338e+00
1.225413e+00
1.199187e+00
1.171846e+00
1.145587e+00
1.117591e+00
1.090159e+00
1.062887e+00
1.037932e+00
1.013588e+00
9.877629e-01
9.642777e-01
9.472799e-01
9.319707e-01
9.187803e-01
9.082079e-01
8.962709e-01
8.815808e-01
8.667633e-01
8.528612e-01
8.388998e-01
8.272345e-01
8.140874e-01
7.979102e-01
7.827698e-01
7.658342e-01
7.481675e-01
7.304804e-01
7.136270e-01
6.975043e-01
6.822665e-01
6.676166e-01
6.519428e-01
6.357849e-01
6.184105e-01
6.010647e-01
5.834124e-01
5.657060e-01
5.482836e-01
5.308183e-01
5.132741e-01
4.956052e-01
4.776279e-01
4.595904e-01
4.418446e-01
4.255813e-01
4.120563e-01
4.060345e-01
4.072197e-01
4.557396e-01
7.126012e-01
9.667609e-01
1.289265e+00
1.292118e+00
1.059261e+00
3.087774e-01
1.740984e-01
2.226833e-01
2.540889e-01
2.683442e-01
2.838991e-01
3.005905e-01
3.178770e-01
3.364814e-01
3.561690e-01
3.758935e-01
3.962241e-01
4.183218e-01
4.410104e-01
4.634457e-01
4.861139e-01
5.085813e-01
5.319987e-01
5.559371e-01
5.797013e-01
6.034529e-01
6.250261e-01
6.471149e-01
6.703603e-01
6.948379e-01
7.230246e-01
7.546427e-01
7.943807e-01
8.389591e-01
8.901041e-01
9.441839e-01
9.992671e-01
1.052080e+00
1.105037e+00
1.161280e+00
1.220597e+00
1.282257e+00
1.342371e+00
1.402366e+00
1.462337e+00
1.521455e+00
1.581627e+00
1.642424e+00
1.700292e+00
1.759526e+00
1.818432e+00
1.875037e+00
1.933615e+00
1.993090e+00
2.051147e+00
2.101512e+00
2.146079e+00
2.191084e+00
2.236993e+00
2.288187e+00
2.344475e+00
2.405974e+00
2.467978e+00
2.529123e+00
2.596841e+00
2.668410e+00
2.735075e+00
2.791364e+00
2.838680e+00
2.879564e+00
2.927444e+00
2.968961e+00
3.000544e+00
3.022068e+00
3.033424e+00
3.038517e+00
3.040602e+00
3.037745e+00
3.030886e+00
3.026437e+00
3.031437e+00
3.039147e+00
3.051730e+00
3.066160e+00
3.082890e+00
3.098533e+00
3.115568e+00
3.132757e+00
3.150946e+00
3.163099e+00
3.171576e+00
3.177857e+00
3.181723e+00
3.178619e+00
3.173341e+00
3.158889e+00
3.138129e+00
3.104379e+00
3.068594e+00
3.036775e+00
3.001830e+00
2.959132e+00
2.910184e+00
2.859886e+00
2.801563e+00
2.741220e+00
2.677027e+00
2.616651e+00
2.557356e+00
2.502242e+00
2.448463e+00
2.397986e+00
2.362279e+00
2.331128e+00
2.302907e+00
2.273392e+00
2.245034e+00
2.221172e+00
2.194974e+00
2.169490e+00
2.141941e+00
2.113276e+00
2.081981e+00
2.050891e+00
2.015264e+00
1.977010e+00
1.940182e+00
1.900671e+00
1.863885e+00
1.828478e+00
1.790520e+00
1.750975e+00
1.711733e+00
1.674477e+00
1.637075e+00
1.601864e+00
1.564559e+00
1.519483e+00
1.472875e+00
1.425148e+00
1.382316e+00
1.343938e+00
1.310132e+00
1.281898e+00
1.249360e+00
1.217196e+00
1.186435e+00
1.157698e+00
1.130035e+00
1.106316e+00
1.085753e+00
1.068896e+00
1.052105e+00
1.033310e+00
1.015577e+00
9.985938e-01
9.779814e-01
9.563612e-01
9.358540e-01
9.147883e-01
8.929713e-01
8.761013e-01
8.592460e-01
8.422908e-01
8.263719e-01
8.113687e-01
7.947981e-01
7.778033e-01
7.603324e-01
7.435946e-01
7.264466e-01
7.092424e-01
6.922975e-01
6.750721e-01
6.584656e-01
6.421283e-01
6.268445e-01
6.139228e-01
5.993144e-01
6.766920e-01
9.163924e-01
1.249919e+00
1.631987e+00
1.630313e+00
1.236276e+00
2.947363e-01
1.874798e-01
2.370812e-01
2.708244e-01
2.841976e-01
3.009561e-01
3.191190e-01
3.383485e-01
3.589519e-01
3.793565e-01
4.009179e-01
4.244664e-01
4.480604e-01
4.724373e-01
4.965433e-01
5.210531e-01
5.456857e-01
5.698121e-01
5.944652e-01
6.187652e-01
6.421737e-01
6.688831e-01
6.972270e-01
7.297239e-01
7.659838e-01
8.088028e-01
8.578398e-01
9.131400e-01
9.734109e-01
1.034376e+00
1.093310e+00
1.151673e+00
1.211237e+00
1.276556e+00
1.341708e+00
1.407683e+00
1.476967e+00
1.547380e+00
1.615662e+00
1.683593e+00
1.749894e+00
1.814474e+00
1.882673e+00
1.949634e+00
2.015236e+00
2.078947e+00
2.142281e+00
2.200727e+00
2.259167e+00
2.315891e+00
2.372542e+00
2.428849e+00
2.484308e+00
2.539402e+00
2.593691e+00
2.655275e+00
2.725359e+00
2.800659e+00
2.883186e+00
2.967310e+00
3.052516e+00
3.131215e+00
3.194645e+00
3.247306e+00
3.296417e+00
3.351761e+00
3.402472e+00
3.449057e+00
3.484143e+00
3.499812e+00
3.510158e+00
3.516032e+00
3.516214e+00
3.516102e+00
3.510074e+00
3.509358e+00
3.519486e+00
3.537902e+00
3.560047e+00
3.578132e+00
3.593201e+00
3.603734e+00
3.610997e+00
3.621388e+00
3.634145e+00
3.648991e+00
3.655371e+00
3.652879e+00
3.632390e+00
3.608708e+00
3.587412e+00
3.570860e+00
3.549206e+00
3.516881e+00
3.479913e+00
3.439967e+00
3.397969e+00
3.350808e+00
3.299954e+00
3.250736e+00
3.185342e+00
3.115426e+00
3.048421e+00
2.991092e+00
2.938402e+00
2.885157e+00
2.834996e+00
2.791646e+00
2.754774e+00
2.721020e+00
2.687378e+00
2.653343e+00
2.620740e+00
2.589024e+00
2.554484e+00
2.522575e+00
2.493409e+00
2.462116e+00
2.428873e+00
2.390264e+00
2.344334e+00
2.292956e+00
2.237557e+00
2.184459e+00
2.134136e+00
2.085942e+00
2.040045e+00
1.996406e+00
1.953132e+00
1.910710e+00
1.869416e+00
1.827855e+00
1.787055e+00
1.744882e+00
1.701547e+00
1.658543e+00
1.614346e+00
1.571175e+00
1.528649e+00
1.488078e+00
1.448421e+00
1.408998e+00
1.376245e+00
1.343552e+00
1.311505e+00
1.278639e+00
1.249996e+00
1.223371e+00
1.196056e+00
1.169524e+00
1.144109e+00
1.120813e+00
1.096551e+00
1.072505e+00
1.048594e+00
1.024258e+00
1.001284e+00
9.831266e-01
9.664295e-01
9.498223e-01
9.333286e-01
9.161272e-01
8.984155e-01
8.803940e-01
8.619673e-01
8.437130e-01
8.257472e-01
8.077555e-01
7.890891e-01
7.706366e-01
7.521849e-01
7.352283e-01
7.210683e-01
7.005476e-01
7.812680e-01
1.040263e+00
1.430820e+00
1.861781e+00
1.825974e+00
1.371326e+00
2.881346e-01
2.071155e-01
2.597562e-01
2.881188e-01
3.017282e-01
3.199267e-01
3.400503e-01
3.606223e-01
3.815963e-01
4.031595e-01
4.249039e-01
4.474998e-01
4.709986e-01
4.950121e-01
5.195281e-01
5.446213e-01
5.693066e-01
5.946542e-01
6.220625e-01
6.509414e-01
6.840328e-01
7.222584e-01
7.608551e-01
8.049447e-01
8.533382e-01
9.087932e-01
9.705337e-01
1.034887e+00
1.097178e+00
1.157990e+00
1.220760e+00
1.286011e+00
1.352276e+00
1.421394e+00
1.494135e+00
1.566991e+00
1.640998e+00
1.713330e+00
1.782901e+00
1.850440e+00
1.921663e+00
1.993582e+00
2.065362e+00
2.133980e+00
2.197675e+00
2.256402e+00
2.320849e+00
2.386165e+00
2.451765e+00
2.516260e+00
2.581912e+00
2.648605e+00
2.715922e+00
2.787474e+00
2.859904e+00
2.932521e+00
3.009561e+00
3.093973e+00
3.197560e+00
3.305196e+00
3.407314e+00
3.489986e+00
3.552958e+00
3.603244e+00
3.653279e+00
3.710697e+00
3.766004e+00
3.809467e+00
3.848517e+00
3.879252e+00
3.897343e+00
3.905861e+00
3.913831e+00
3.916698e+00
3.915263e+00
3.920854e+00
3.934922e+00
3.954269e+00
3.972877e+00
3.988281e+00
4.002297e+00
4.009238e+00
4.012356e+00
4.018767e+00
4.024231e+00
4.026580e+00
4.022989e+00
4.012794e+00
3.995079e+00
3.970410e+00
3.944777e+00
3.923087e+00
3.897174e+00
3.858273e+00
3.810482e+00
3.758917e+00
3.703526e+00
3.649587e+00
3.589896e+00
3.520309e+00
3.443925e+00
3.373077e+00
3.316318e+00
3.265377e+00
3.211435e+00
3.157343e+00
3.108964e+00
3.068175e+00
3.027279e+00
2.986371e+00
2.949132e+00
2.913419e+00
2.875002e+00
2.836611e+00
2.798830e+00
2.759144e+00
2.722168e+00
2.686693e+00
2.649621e+00
2.611428e+00
2.568338e+00
2.521086e+00
2.470595e+00
2.417542e+00
2.363246e+00
2.304818e+00
2.245927e+00
2.188434e+00
2.132707e+00
2.083668e+00
2.035904e+00
1.988363e+00
1.938857e+00
1.895189e+00
1.852951e+00
1.810298e+00
1.767563e+00
1.728568e+00
1.688164e+00
1.647950e+00
1.604392e+00
1.563399e+00
1.520483e+00
1.477689e+00
1.439136e+00
1.400902e+00
1.366207e+00
1.333131e+00
1.301418e+00
1.270433e+00
1.241013e+00
1.212655e+00
1.186733e+00
1.160415e+00
1.133464e+00
1.107262e+00
1.083213e+00
1.065248e+00
1.047866e+00
1.030451e+00
1.012508e+00
9.925871e-01
9.725026e-01
9.537364e-01
9.354270e-01
9.167825e-01
8.978988e-01
8.788231e-01
8.598270e-01
8.409526e-01
8.218529e-01
8.036820e-01
7.882223e-01
7.649238e-01
8.445907e-01
1.106526e+00
1.534268e+00
2.040413e+00
1.973893e+00
1.451880e+00
2.826291e-01
2.293899e-01
2.860253e-01
3.113475e-01
3.291735e-01
3.487716e-01
3.686200e-01
3.881377e-01
4.070963e-01
4.265931e-01
4.491728e-01
4.730768e-01
4.982724e-01
5.242234e-01
5.510686e-01
5.793287e-01
6.084405e-01
6.378328e-01
6.704034e-01
7.084822e-01
7.487337e-01
7.941972e-01
8.453634e-01
9.003239e-01
9.592100e-01
1.021775e+00
1.085753e+00
1.150235e+00
1.212366e+00
1.276275e+00
1.346168e+00
1.419111e+00
1.492999e+00
1.567350e+00
1.642149e+00
1.714971e+00
1.784924e+00
1.855086e+00
1.924400e+00
1.999769e+00
2.075449e+00
2.150496e+00
2.223877e+00
2.295052e+00
2.361537e+00
2.428659e+00
2.495744e+00
2.561974e+00
2.629866e+00
2.697814e+00
2.770947e+00
2.856033e+00
2.952254e+00
3.044388e+00
3.136707e+00
3.224404e+00
3.318909e+00
3.418218e+00
3.527345e+00
3.640994e+00
3.744793e+00
3.832726e+00
3.900116e+00
3.953921e+00
4.006407e+00
4.061452e+00
4.119362e+00
4.170128e+00
4.214775e+00
4.249680e+00
4.284261e+00
4.310400e+00
4.324136e+00
4.330758e+00
4.338877e+00
4.347615e+00
4.361190e+00
4.377898e+00
4.395466e+00
4.409103e+00
4.414682e+00
4.412040e+00
4.406195e+00
4.395359e+00
4.379516e+00
4.367175e+00
4.350885e+00
4.329952e+00
4.313501e+00
4.289870e+00
4.260918e+00
4.228258e+00
4.190418e+00
4.141073e+00
4.090040e+00
4.030899e+00
3.966418e+00
3.906215e+00
3.842560e+00
3.772438e+00
3.700083e+00
3.628969e+00
3.556572e+00
3.491534e+00
3.433623e+00
3.374416e+00
3.317657e+00
3.277076e+00
3.238362e+00
3.202445e+00
3.163418e+00
3.121865e+00
3.085127e+00
3.048466e+00
3.009349e+00
2.966078e+00
2.919265e+00
2.876247e+00
2.835087e+00
2.791485e+00
2.746760e+00
2.698944e+00
2.647016e+00
2.595009e+00
2.546068e+00
2.494101e+00
2.441162e+00
2.384213e+00
2.327783e+00
2.271884e+00
2.209272e+00
2.143838e+00
2.086735e+00
2.036092e+00
1.988593e+00
1.941250e+00
1.893578e+00
1.849305e+00
1.805149e+00
1.762390e+00
1.724514e+00
1.681849e+00
1.637454e+00
1.591445e+00
1.544181e+00
1.499613e+00
1.459645e+00
1.423365e+00
1.388627e+00
1.355643e+00
1.324293e+00
1.293644e+00
1.264354e+00
1.236362e+00
1.209781e+00
1.183193e+00
1.158573e+00
1.137103e+00
1.116315e+00
1.096360e+00
1.076966e+00
1.056430e+00
1.037438e+00
1.018998e+00
1.000723e+00
9.822773e-01
9.630699e-01
9.431255e-01
9.225015e-01
9.010221e-01
8.795162e-01
8.593061e-01
8.429969e-01
8.220314e-01
9.025768e-01
1.166793e+00
1.625501e+00
2.217224e+00
2.109687e+00
1.522444e+00
2.702826e-01
2.440058e-01
3.170082e-01
3.413156e-01
3.576599e-01
3.763619e-01
3.956605e-01
4.157865e-01
4.380083e-01
4.619792e-01
4.865657e-01
5.110853e-01
5.367269e-01
5.650402e-01
5.961514e-01
6.286996e-01
6.648997e-01
7.038865e-01
7.458031e-01
7.903692e-01
8.399061e-01
8.942569e-01
9.513102e-01
1.011146e+00
1.074182e+00
1.139408e+00
1.203643e+00
1.266261e+00
1.332007e+00
1.404060e+00
1.479489e+00
1.554824e+00
1.628014e+00
1.699238e+00
1.770661e+00
1.839011e+00
1.907844e+00
1.980300e+00
2.061973e+00
2.144724e+00
2.223523e+00
2.300007e+00
2.374671e+00
2.445763e+00
2.517189e+00
2.587771e+00
2.657402e+00
2.727576e+00
2.800587e+00
2.887728e+00
2.979446e+00
3.078173e+00
3.189173e+00
3.305569e+00
3.417151e+00
3.524470e+00
3.632427e+00
3.735470e+00
3.842562e+00
3.950153e+00
4.048081e+00
4.127237e+00
4.191855e+00
4.246026e+00
4.306727e+00
4.372559e+00
4.437896e+00
4.495983e+00
4.547647e+00
4.590037e+00
4.631126e+00
4.662617e+00
4.678785e+00
4.683948e+00
4.694361e+00
4.711869e+00
4.721994e+00
4.725201e+00
4.733256e+00
4.735222e+00
4.736609e+00
4.735810e+00
4.728507e+00
4.714947e+00
4.698312e+00
4.679976e+00
4.657793e+00
4.630229e+00
4.594942e+00
4.558588e+00
4.525178e+00
4.487942e+00
4.436943e+00
4.375139e+00
4.304334e+00
4.241207e+00
4.175410e+00
4.106512e+00
4.038033e+00
3.968535e+00
3.900738e+00
3.829748e+00
3.764872e+00
3.699551e+00
3.634606e+00
3.574270e+00
3.519746e+00
3.468708e+00
3.424969e+00
3.385326e+00
3.341402e+00
3.295122e+00
3.247722e+00
3.203796e+00
3.159527e+00
3.120278e+00
3.080786e+00
3.038542e+00
2.996884e+00
2.952401e+00
2.905959e+00
2.856789e+00
2.806965e+00
2.756142e+00
2.703994e+00
2.653525e+00
2.605331e+00
2.554115e+00
2.501667e+00
2.443524e+00
2.383483e+00
2.318180e+00
2.246577e+00
2.175025e+00
2.113885e+00
2.058423e+00
2.011546e+00
1.963164e+00
1.915438e+00
1.867421e+00
1.823476e+00
1.783696e+00
1.738845e+00
1.691687e+00
1.641325e+00
1.595176e+00
1.548845e+00
1.509206e+00
1.472552e+00
1.437777e+00
1.403342e+00
1.369009e+00
1.340026e+00
1.310721e+00
1.282159e+00
1.253001e+00
1.228543e+00
1.207044e+00
1.186610e+00
1.166106e+00
1.143860e+00
1.121912e+00
1.101631e+00
1.082221e+00
1.062271e+00
1.041374e+00
1.020238e+00
9.986741e-01
9.769921e-01
9.546868e-01
9.324386e-01
9.113596e-01
8.931519e-01
8.729438e-01
9.591388e-01
1.224215e+00
1.737423e+00
2.373172e+00
2.219574e+00
1.588659e+00
2.660912e-01
2.518707e-01
3.461916e-01
3.675515e-01
3.855189e-01
4.061173e-01
4.271741e-01
4.495777e-01
4.732478e-01
4.985737e-01
5.254366e-01
5.537047e-01
5.839632e-01
6.156111e-01
6.527332e-01
6.946868e-01
7.401633e-01
7.864758e-01
8.350578e-01
8.914633e-01
9.488289e-01
1.006323e+00
1.066773e+00
1.128858e+00
1.192061e+00
1.255887e+00
1.321395e+00
1.390028e+00
1.460094e+00
1.532529e+00
1.604119e+00
1.676099e+00
1.749589e+00
1.820478e+00
1.892605e+00
1.963739e+00
2.036341e+00
2.118860e+00
2.203494e+00
2.286635e+00
2.365224e+00
2.439247e+00
2.512672e+00
2.585869e+00
2.661023e+00
2.737389e+00
2.814681e+00
2.903072e+00
2.996026e+00
3.094198e+00
3.192721e+00
3.295804e+00
3.407818e+00
3.525335e+00
3.650530e+00
3.772980e+00
3.882954e+00
3.991353e+00
4.093827e+00
4.186806e+00
4.277563e+00
4.358454e+00
4.430964e+00
4.495064e+00
4.556686e+00
4.621937e+00
4.688983e+00
4.751500e+00
4.805937e+00
4.854859e+00
4.897370e+00
4.926065e+00
4.947006e+00
4.955706e+00
4.965921e+00
4.975593e+00
4.975262e+00
4.973419e+00
4.971179e+00
4.969193e+00
4.967245e+00
4.966653e+00
4.962080e+00
4.951230e+00
4.937691e+00
4.921382e+00
4.900564e+00
4.870820e+00
4.827623e+00
4.769638e+00
4.712827e+00
4.668450e+00
4.617233e+00
4.546123e+00
4.465063e+00
4.397062e+00
4.339330e+00
4.268865e+00
4.197240e+00
4.130900e+00
4.069665e+00
4.006036e+00
3.944856e+00
3.884290e+00
3.823407e+00
3.762896e+00
3.702047e+00
3.648159e+00
3.600177e+00
3.554656e+00
3.508463e+00
3.459654e+00
3.412207e+00
3.362835e+00
3.310478e+00
3.263645e+00
3.215367e+00
3.170130e+00
3.124278e+00
3.078831e+00
3.032754e+00
2.990758e+00
2.944521e+00
2.899889e+00
2.853022e+00
2.803114e+00
2.750020e+00
2.692996e+00
2.641944e+00
2.589250e+00
2.530309e+00
2.467564e+00
2.400081e+00
2.332554e+00
2.260889e+00
2.193524e+00
2.131428e+00
2.072790e+00
2.018575e+00
1.972440e+00
1.923143e+00
1.876414e+00
1.830997e+00
1.785013e+00
1.736653e+00
1.685703e+00
1.636787e+00
1.594290e+00
1.553981e+00
1.517099e+00
1.481610e+00
1.449148e+00
1.415699e+00
1.383786e+00
1.353359e+00
1.323790e+00
1.298400e+00
1.274129e+00
1.252161e+00
1.229907e+00
1.206398e+00
1.182892e+00
1.159283e+00
1.136363e+00
1.114623e+00
1.092703e+00
1.070738e+00
1.048692e+00
1.026144e+00
1.002345e+00
9.769257e-01
9.519016e-01
9.305169e-01
9.140626e-01
1.016285e+00
1.286629e+00
1.853773e+00
2.522135e+00
2.325430e+00
1.653358e+00
3.220139e-01
2.569153e-01
3.683978e-01
3.979637e-01
4.155063e-01
4.373436e-01
4.605194e-01
4.840417e-01
5.104226e-01
5.387532e-01
5.682619e-01
6.018325e-01
6.412774e-01
6.853773e-01
7.311062e-01
7.791885e-01
8.284946e-01
8.854857e-01
9.446179e-01
1.006433e+00
1.066000e+00
1.126232e+00
1.186294e+00
1.246628e+00
1.306418e+00
1.371137e+00
1.439060e+00
1.506872e+00
1.577075e+00
1.649089e+00
1.720363e+00
1.790074e+00
1.863415e+00
1.936466e+00
2.011377e+00
2.086296e+00
2.164501e+00
2.244473e+00
2.326322e+00
2.405366e+00
2.484601e+00
2.563313e+00
2.641957e+00
2.717882e+00
2.797572e+00
2.887548e+00
2.983805e+00
3.084798e+00
3.184945e+00
3.284188e+00
3.381685e+00
3.483835e+00
3.592173e+00
3.708397e+00
3.829810e+00
3.943962e+00
4.056946e+00
4.162029e+00
4.266492e+00
4.362213e+00
4.444262e+00
4.518094e+00
4.583940e+00
4.646798e+00
4.714037e+00
4.783395e+00
4.853565e+00
4.921145e+00
4.981403e+00
5.034738e+00
5.070988e+00
5.091313e+00
5.104015e+00
5.115989e+00
5.129234e+00
5.129811e+00
5.127058e+00
5.124027e+00
5.124011e+00
5.129800e+00
5.131369e+00