/*--------------------------------*- C++ -*----------------------------------*\
| =========                 |                                                 |
| \\      /  F ield         | OpenFOAM: The Open Source CFD Toolbox           |
|  \\    /   O peration     | Version:  v2406                                 |
|   \\  /    A nd           | Website:  www.openfoam.com                      |
|    \\/     M anipulation  |                                                 |
\*---------------------------------------------------------------------------*/
FoamFile
{
    version     2.0;
    format      ascii;
    class       volScalarField;
    location    "predicted";
    object      nut;
}
// * * * * * * * * * * * * * * * * * * * * * * * * * * * * * * * * * * * * * //

dimensions      [0 2 -1 0 0 0 0];

internalField   nonuniform List<scalar>
49181
(
-5.072646e-04
2.806032e-04
3.061568e-04
1.358922e-04
5.927412e-05
3.473875e-05
1.941366e-05
5.315702e-06
-6.134216e-06
9.270294e-06
3.013871e-07
-3.391153e-06
5.280189e-06
1.398724e-05
3.565350e-05
4.040537e-05
9.970660e-05
-4.918536e-05
2.890282e-04
5.100490e-04
5.940911e-04
4.339666e-04
3.536380e-04
3.259240e-04
3.018985e-04
2.780811e-04
2.687604e-04
2.616531e-04
2.584488e-04
2.606307e-04
2.720361e-04
2.615260e-04
2.627193e-04
2.817872e-04
3.269317e-04
3.501161e-04
3.676251e-04
6.733565e-04
7.731410e-04
6.893424e-04
6.304440e-04
5.868937e-04
5.393087e-04
4.876602e-04
4.398287e-04
4.050466e-04
3.836110e-04
3.810682e-04
4.014573e-04
4.368582e-04
5.394216e-04
5.928369e-04
5.790323e-04
4.763951e-04
2.132986e-04
6.158717e-04
7.501201e-04
6.965228e-04
6.459640e-04
6.093035e-04
5.694156e-04
5.289453e-04
4.895896e-04
4.479742e-04
4.014382e-04
4.042205e-04
4.335525e-04
4.983224e-04
5.873943e-04
6.292497e-04
6.232139e-04
5.221698e-04
1.739694e-04
6.239804e-04
7.644700e-04
7.183562e-04
6.771719e-04
6.497496e-04
6.224194e-04
5.891247e-04
5.564452e-04
5.291458e-04
5.056867e-04
4.975094e-04
5.209422e-04
5.678624e-04
6.373922e-04
6.681693e-04
6.648934e-04
5.855774e-04
1.941258e-04
6.726661e-04
7.903361e-04
7.518506e-04
7.240669e-04
7.054964e-04
6.853461e-04
6.636540e-04
6.383868e-04
6.130693e-04
5.913821e-04
5.801950e-04
6.034283e-04
6.467622e-04
6.963987e-04
7.155916e-04
7.138616e-04
6.551752e-04
2.285438e-04
7.240693e-04
8.119883e-04
7.781532e-04
7.574062e-04
7.476012e-04
7.323123e-04
7.155076e-04
6.978873e-04
6.797346e-04
6.621295e-04
6.532529e-04
6.731919e-04
7.034267e-04
7.386919e-04
7.513288e-04
7.513444e-04
7.065017e-04
2.600037e-04
7.605402e-04
8.299162e-04
8.023794e-04
7.850415e-04
7.772424e-04
7.690935e-04
7.537489e-04
7.375145e-04
7.215808e-04
7.058798e-04
6.982109e-04
7.149837e-04
7.428142e-04
7.708471e-04
7.777524e-04
7.783030e-04
7.451384e-04
2.904470e-04
7.855590e-04
8.337054e-04
8.199110e-04
8.053449e-04
7.968387e-04
7.886172e-04
7.795118e-04
7.650480e-04
7.505406e-04
7.382647e-04
7.313470e-04
7.467269e-04
7.683202e-04
7.908059e-04
7.971076e-04
7.992546e-04
7.711577e-04
3.110369e-04
8.010234e-04
8.342252e-04
8.231308e-04
8.139975e-04
8.092034e-04
8.035854e-04
7.969078e-04
7.874240e-04
7.733447e-04
7.606685e-04
7.550181e-04
7.696608e-04
7.903752e-04
8.043903e-04
8.053164e-04
8.096075e-04
7.932190e-04
3.262226e-04
8.088469e-04
8.338182e-04
8.253472e-04
8.179337e-04
8.134020e-04
8.097786e-04
8.061170e-04
8.001999e-04
7.925896e-04
7.814037e-04
7.757151e-04
7.905080e-04
8.023864e-04
8.096803e-04
8.094495e-04
8.137076e-04
8.030258e-04
3.443463e-04
8.158861e-04
8.371387e-04
8.247567e-04
8.204074e-04
8.182770e-04
8.151634e-04
8.113941e-04
8.069398e-04
8.006059e-04
7.930806e-04
7.888243e-04
8.031768e-04
8.082529e-04
8.148838e-04
8.125707e-04
8.173245e-04
8.073459e-04
3.626630e-04
8.228153e-04
8.397032e-04
8.240548e-04
8.211984e-04
8.220055e-04
8.199154e-04
8.162503e-04
8.115429e-04
8.060900e-04
8.002623e-04
7.981081e-04
8.095432e-04
8.129713e-04
8.185683e-04
8.141113e-04
8.192635e-04
8.110340e-04
3.793043e-04
8.277968e-04
8.422557e-04
8.256471e-04
8.209604e-04
8.241748e-04
8.241015e-04
8.204255e-04
8.153467e-04
8.101821e-04
8.051229e-04
8.041236e-04
8.146069e-04
8.167680e-04
8.211120e-04
8.134765e-04
8.192635e-04
8.139098e-04
3.876483e-04
8.297529e-04
8.442875e-04
8.277882e-04
8.208096e-04
8.234345e-04
8.260898e-04
8.241609e-04
8.197079e-04
8.138966e-04
8.084857e-04
8.078719e-04
8.187521e-04
8.207417e-04
8.211275e-04
8.114448e-04
8.168485e-04
8.167877e-04
3.962749e-04
8.295237e-04
8.456923e-04
8.288336e-04
8.217535e-04
8.234067e-04
8.259231e-04
8.264124e-04
8.234160e-04
8.185628e-04
8.132348e-04
8.125173e-04
8.233976e-04
8.241114e-04
8.204413e-04
8.119603e-04
8.176052e-04
8.186011e-04
4.150819e-04
8.279131e-04
8.458814e-04
8.296869e-04
8.229907e-04
8.246439e-04
8.268145e-04
8.283673e-04
8.281598e-04
8.241047e-04
8.198045e-04
8.191226e-04
8.298245e-04
8.283749e-04
8.216973e-04
8.134759e-04
8.189711e-04
8.200194e-04
4.354711e-04
8.275015e-04
8.437553e-04
8.303724e-04
8.236756e-04
8.256097e-04
8.275643e-04
8.299133e-04
8.324149e-04
8.318545e-04
8.291526e-04
8.290075e-04
8.390203e-04
8.315663e-04
8.226121e-04
8.149053e-04
8.207234e-04
8.218245e-04
4.447986e-04
8.224862e-04
8.411726e-04
8.291258e-04
8.242210e-04
8.243402e-04
8.264827e-04
8.289447e-04
8.318558e-04
8.345251e-04
8.359070e-04
8.383401e-04
8.463478e-04
8.315788e-04
8.230167e-04
8.174755e-04
8.228288e-04
8.227857e-04
4.488160e-04
8.205568e-04
8.343719e-04
8.235149e-04
8.193617e-04
8.194677e-04
8.215124e-04
8.243303e-04
8.270791e-04
8.297393e-04
8.318865e-04
8.348140e-04
8.425885e-04
8.284512e-04
8.198981e-04
8.141590e-04
8.180879e-04
8.169883e-04
5.243447e-04
8.401876e-04
8.326595e-04
8.172745e-04
8.142455e-04
8.156127e-04
8.182334e-04
8.205514e-04
8.232174e-04
8.239862e-04
8.234954e-04
8.247837e-04
8.353137e-04
8.241580e-04
8.160131e-04
8.079705e-04
8.104864e-04
8.179367e-04
6.815835e-04
9.498652e-04
8.879813e-04
8.402760e-04
8.351591e-04
8.361240e-04
8.384976e-04
8.385998e-04
8.358656e-04
8.316612e-04
8.271266e-04
8.274017e-04
8.390490e-04
8.372501e-04
8.322141e-04
8.255402e-04
8.332995e-04
8.386105e-04
6.626255e-04
8.552988e-04
8.999804e-04
8.348677e-04
8.276481e-04
8.309468e-04
8.315045e-04
8.282639e-04
8.234674e-04
8.176511e-04
8.127332e-04
8.137352e-04
8.250825e-04
8.254716e-04
8.244787e-04
8.167233e-04
8.236952e-04
8.282837e-04
6.316749e-04
8.084736e-04
8.967271e-04
8.301409e-04
8.221207e-04
8.254549e-04
8.263470e-04
8.227390e-04
8.176981e-04
8.114875e-04
8.064389e-04
8.073224e-04
8.190910e-04
8.194364e-04
8.187363e-04
8.106638e-04
8.172094e-04
8.191377e-04
5.902237e-04
8.057350e-04
8.913192e-04
8.283903e-04
8.211263e-04
8.238161e-04
8.258144e-04
8.234935e-04
8.191155e-04
8.129710e-04
8.077718e-04
8.081598e-04
8.202256e-04
8.200760e-04
8.174683e-04
8.094576e-04
8.170242e-04
8.194653e-04
5.772967e-04
8.090832e-04
8.857110e-04
8.282822e-04
8.225459e-04
8.247926e-04
8.266099e-04
8.258352e-04
8.218712e-04
8.163431e-04
8.109639e-04
8.111685e-04
8.234081e-04
8.223051e-04
8.178247e-04
8.100627e-04
8.170689e-04
8.224402e-04
6.206891e-04
8.277294e-04
8.878726e-04
8.374703e-04
8.318216e-04
8.327639e-04
8.332182e-04
8.316144e-04
8.283315e-04
8.224456e-04
8.172081e-04
8.175981e-04
8.288413e-04
8.254495e-04
8.227667e-04
8.153888e-04
8.211642e-04
8.290235e-04
8.110920e-04
8.425848e-04
8.997106e-04
8.558781e-04
8.484257e-04
8.487619e-04
8.461502e-04
8.419747e-04
8.364781e-04
8.301648e-04
8.228367e-04
8.199354e-04
8.331061e-04
8.222137e-04
8.223576e-04
8.120838e-04
8.201385e-04
8.236869e-04
6.892070e-04
8.575178e-04
9.089459e-04
8.432533e-04
8.203497e-04
8.167581e-04
8.117266e-04
8.023102e-04
7.873505e-04
7.566443e-04
7.236819e-04
7.060246e-04
7.161503e-04
7.309633e-04
7.510837e-04
7.488934e-04
7.413615e-04
6.976186e-04
-2.069968e-04
5.767013e-04
6.528515e-04
4.165352e-04
3.409562e-04
3.100829e-04
2.848841e-04
2.585019e-04
2.375694e-04
2.761624e-04
2.668133e-04
2.497964e-04
2.468383e-04
2.654789e-04
2.958449e-04
3.255044e-04
2.892899e-04
2.757649e-04
-3.457439e-04
3.807244e-04
5.820535e-04
5.656472e-04
5.724500e-04
5.804260e-04
5.886425e-04
5.961610e-04
6.031442e-04
6.101016e-04
6.180677e-04
6.267632e-04
6.359241e-04
6.446479e-04
6.530475e-04
6.616116e-04
6.696688e-04
6.779464e-04
6.880972e-04
6.964115e-04
7.027736e-04
7.090743e-04
7.142566e-04
7.180927e-04
7.201207e-04
7.223324e-04
7.245568e-04
7.281288e-04
7.316251e-04
7.361662e-04
7.418967e-04
7.475468e-04
7.522800e-04
7.572252e-04
7.635683e-04
7.721908e-04
7.823913e-04
7.926409e-04
8.028425e-04
8.113960e-04
8.198828e-04
8.276037e-04
8.354200e-04
8.440495e-04
8.504631e-04
8.536154e-04
8.574963e-04
8.605715e-04
8.634322e-04
8.657605e-04
8.665634e-04
8.642965e-04
8.591286e-04
8.488661e-04
8.356533e-04
8.204992e-04
8.011811e-04
7.800181e-04
7.583312e-04
7.345288e-04
7.061603e-04
6.765105e-04
6.454665e-04
6.154047e-04
5.854383e-04
5.576415e-04
5.348625e-04
5.070492e-04
4.805529e-04
4.623645e-04
4.470408e-04
4.310669e-04
4.174244e-04
4.055372e-04
3.946483e-04
3.893633e-04
3.936516e-04
4.043628e-04
4.174313e-04
4.303420e-04
4.428073e-04
4.545008e-04
4.632893e-04
4.694398e-04
4.805715e-04
4.969749e-04
5.137702e-04
5.315514e-04
5.501428e-04
5.684406e-04
5.882630e-04
6.107401e-04
6.311715e-04
6.549663e-04
6.780711e-04
7.010204e-04
7.273155e-04
7.510002e-04
7.748110e-04
7.951840e-04
8.102600e-04
8.258420e-04
8.419891e-04
8.571901e-04
8.712114e-04
8.829916e-04
8.943951e-04
9.078110e-04
9.211820e-04
9.346667e-04
9.440999e-04
9.528363e-04
9.559261e-04
9.539357e-04
9.512955e-04
9.473763e-04
9.417953e-04
9.363197e-04
9.315570e-04
9.253450e-04
9.172792e-04
9.085701e-04
9.013574e-04
8.978618e-04
8.960100e-04
8.970494e-04
9.013383e-04
9.047445e-04
9.065731e-04
9.081276e-04
9.110099e-04
9.138927e-04
9.159997e-04
9.190854e-04
9.237050e-04
9.288649e-04
9.355111e-04
9.420236e-04
9.475505e-04
9.532518e-04
9.586473e-04
9.638663e-04
9.674365e-04
9.712628e-04
9.767876e-04
9.820364e-04
9.861296e-04
9.900352e-04
9.935848e-04
9.942431e-04
9.941356e-04
9.923767e-04
9.893238e-04
9.848342e-04
9.810008e-04
9.765370e-04
9.718084e-04
9.668127e-04
9.613689e-04
9.552372e-04
9.479338e-04
9.403090e-04
9.317555e-04
9.230989e-04
9.138550e-04
9.045817e-04
8.958771e-04
8.872522e-04
8.778189e-04
8.686500e-04
8.601889e-04
8.539826e-04
8.665706e-04
9.261914e-04
9.364295e-04
9.418935e-04
8.220536e-04
7.880919e-04
7.851918e-04
8.383077e-04
3.730957e-04
3.569443e-04
4.009729e-04
4.338461e-04
4.455422e-04
4.575712e-04
4.698236e-04
4.818404e-04
4.933204e-04
5.043846e-04
5.152965e-04
5.252631e-04
5.345670e-04
5.438386e-04
5.530831e-04
5.633447e-04
5.743815e-04
5.858285e-04
5.984833e-04
6.111143e-04
6.234249e-04
6.357282e-04
6.481057e-04
6.611686e-04
6.754871e-04
6.909855e-04
7.085644e-04
7.266579e-04
7.450203e-04
7.630110e-04
7.817702e-04
8.023427e-04
8.249204e-04
8.473648e-04
8.698339e-04
8.919452e-04
9.121540e-04
9.312269e-04
9.501284e-04
9.700829e-04
9.927491e-04
1.014881e-03
1.033473e-03
1.053760e-03
1.075144e-03
1.096372e-03
1.119308e-03
1.141728e-03
1.163103e-03
1.185039e-03
1.205897e-03
1.225026e-03
1.241732e-03
1.255785e-03
1.266336e-03
1.272354e-03
1.277575e-03
1.279218e-03
1.281218e-03
1.279876e-03
1.271597e-03
1.266073e-03
1.264244e-03
1.263790e-03
1.264887e-03
1.262302e-03
1.252707e-03
1.237333e-03
1.221877e-03
1.206330e-03
1.187383e-03
1.169716e-03
1.159755e-03
1.148417e-03
1.141356e-03
1.137320e-03
1.139194e-03
1.146818e-03
1.158770e-03
1.170359e-03
1.181655e-03
1.192865e-03
1.205578e-03
1.215815e-03
1.221299e-03
1.225953e-03
1.226778e-03
1.221940e-03
1.217998e-03
1.213219e-03
1.206819e-03
1.200784e-03
1.193614e-03
1.192042e-03
1.195547e-03
1.199864e-03
1.204928e-03
1.206246e-03
1.203095e-03
1.195427e-03
1.186798e-03
1.182780e-03
1.176826e-03
1.169269e-03
1.158726e-03
1.147902e-03
1.138617e-03
1.130731e-03
1.120961e-03
1.106418e-03
1.091394e-03
1.077258e-03
1.065238e-03
1.053977e-03
1.044080e-03
1.032327e-03
1.024055e-03
1.016867e-03
1.009615e-03
1.003576e-03
9.970123e-04
9.892753e-04
9.817613e-04
9.752138e-04
9.680555e-04
9.625033e-04
9.556537e-04
9.486803e-04
9.422705e-04
9.383127e-04
9.351453e-04
9.325338e-04
9.314529e-04
9.312216e-04
9.319257e-04
9.336826e-04
9.338351e-04
9.323797e-04
9.307617e-04
9.306735e-04
9.308964e-04
9.331548e-04
9.349179e-04
9.348347e-04
9.324340e-04
9.308363e-04
9.292764e-04
9.319338e-04
9.341040e-04
9.346561e-04
9.306653e-04
9.247759e-04
9.178292e-04
9.108698e-04
9.042757e-04
8.967561e-04
8.881884e-04
8.793803e-04
8.697309e-04
8.598226e-04
8.501629e-04
8.415167e-04
8.323710e-04
8.222860e-04
8.116134e-04
8.003227e-04
7.890914e-04
7.779745e-04
7.668652e-04
7.558099e-04
7.453183e-04
7.386215e-04
7.475064e-04
7.580464e-04
8.494419e-04
7.900928e-04
8.032538e-04
9.029117e-04
9.205658e-04
8.220088e-04
5.918300e-04
4.200858e-04
4.918595e-04
5.083497e-04
5.181915e-04
5.310164e-04
5.450133e-04
5.588911e-04
5.727930e-04
5.866976e-04
6.007851e-04
6.150235e-04
6.293960e-04
6.446837e-04
6.609835e-04
6.770379e-04
6.941066e-04
7.140895e-04
7.347411e-04
7.552984e-04
7.753162e-04
7.953777e-04
8.155141e-04
8.363233e-04
8.584484e-04
8.816195e-04
9.076387e-04
9.354931e-04
9.638997e-04
9.917192e-04
1.022278e-03
1.059261e-03
1.098617e-03
1.135786e-03
1.172591e-03
1.211289e-03
1.250041e-03
1.288506e-03
1.325133e-03
1.361553e-03
1.396239e-03
1.431927e-03
1.468528e-03
1.504209e-03
1.539370e-03
1.575582e-03
1.610965e-03
1.645915e-03
1.681189e-03
1.718225e-03
1.752994e-03
1.784615e-03
1.815010e-03
1.844763e-03
1.874690e-03
1.905356e-03
1.938947e-03
1.973444e-03
2.005107e-03
2.031647e-03
2.057586e-03
2.083112e-03
2.106539e-03
2.127522e-03
2.144844e-03
2.161002e-03
2.170606e-03
2.171026e-03
2.169035e-03
2.164732e-03
2.158865e-03
2.153452e-03
2.146979e-03
2.143647e-03
2.144454e-03
2.154176e-03
2.166371e-03
2.179719e-03
2.194613e-03
2.214832e-03
2.228012e-03
2.239730e-03
2.249828e-03
2.262584e-03
2.269684e-03
2.272164e-03
2.270831e-03
2.268838e-03
2.263366e-03
2.252757e-03
2.236241e-03
2.213728e-03
2.190855e-03
2.165269e-03
2.137254e-03
2.108270e-03
2.081548e-03
2.063985e-03
2.044531e-03
2.024265e-03
2.003882e-03
1.983536e-03
1.960084e-03
1.942727e-03
1.925852e-03
1.911106e-03
1.902047e-03
1.895223e-03
1.891050e-03
1.886462e-03
1.879991e-03
1.872088e-03
1.863546e-03
1.849716e-03
1.834537e-03
1.817478e-03
1.798770e-03
1.778692e-03
1.753434e-03
1.726006e-03
1.698627e-03
1.674202e-03
1.651161e-03
1.628739e-03
1.607687e-03
1.585498e-03
1.562343e-03
1.534782e-03
1.503759e-03
1.473747e-03
1.446650e-03
1.422499e-03
1.401698e-03
1.383507e-03
1.366760e-03
1.349393e-03
1.333226e-03
1.322592e-03
1.311608e-03
1.301491e-03
1.292970e-03
1.284911e-03
1.274941e-03
1.264240e-03
1.254549e-03
1.245760e-03
1.240852e-03
1.233741e-03
1.224044e-03
1.216965e-03
1.206590e-03
1.195512e-03
1.184491e-03
1.174234e-03
1.165141e-03
1.157533e-03
1.150742e-03
1.142919e-03
1.134163e-03
1.124086e-03
1.113557e-03
1.102662e-03
1.092016e-03
1.080617e-03
1.069931e-03
1.059291e-03
1.048391e-03
1.037735e-03
1.027883e-03
1.018152e-03
1.009821e-03
1.004441e-03
1.008819e-03
1.038077e-03
1.080391e-03
1.076423e-03
1.144235e-03
1.396063e-03
1.355759e-03
1.075357e-03
5.626690e-04
4.548203e-04
5.103009e-04
5.283203e-04
5.391436e-04
5.517891e-04
5.661666e-04
5.818454e-04
5.992412e-04
6.183916e-04
6.376637e-04
6.578096e-04
6.790945e-04
7.010172e-04
7.234389e-04
7.462824e-04
7.693161e-04
7.936050e-04
8.184012e-04
8.445778e-04
8.710181e-04
8.958176e-04
9.221204e-04
9.487285e-04
9.760472e-04
1.006487e-03
1.039003e-03
1.077264e-03
1.117106e-03
1.161175e-03
1.207592e-03
1.253321e-03
1.296800e-03
1.340287e-03
1.385309e-03
1.431358e-03
1.479472e-03
1.526799e-03
1.574276e-03
1.621838e-03
1.669065e-03
1.714991e-03
1.762770e-03
1.808561e-03
1.854622e-03
1.903081e-03
1.948363e-03
1.994283e-03
2.041777e-03
2.090129e-03
2.134067e-03
2.172529e-03
2.211672e-03
2.250993e-03
2.295210e-03
2.341511e-03
2.390641e-03
2.440026e-03
2.489131e-03
2.545353e-03
2.604202e-03
2.660345e-03
2.708152e-03
2.747775e-03
2.781557e-03
2.818558e-03
2.850937e-03
2.879864e-03
2.902002e-03
2.918402e-03
2.934584e-03
2.951592e-03
2.966551e-03
2.982063e-03
2.999259e-03
3.022697e-03
3.048375e-03
3.076338e-03
3.108134e-03
3.139696e-03
3.168207e-03
3.196759e-03
3.223123e-03
3.249232e-03
3.269561e-03
3.287812e-03
3.305321e-03
3.320520e-03
3.327951e-03
3.331588e-03
3.326436e-03
3.316573e-03
3.300049e-03
3.280803e-03
3.265614e-03
3.245134e-03
3.220096e-03
3.193527e-03
3.170196e-03
3.139762e-03
3.104734e-03
3.061144e-03
3.015383e-03
2.969778e-03
2.927961e-03
2.886069e-03
2.852001e-03
2.832534e-03
2.821503e-03
2.813097e-03
2.801822e-03
2.789611e-03
2.780505e-03
2.767125e-03
2.752874e-03
2.735481e-03
2.716984e-03
2.694474e-03
2.671428e-03
2.642653e-03
2.610000e-03
2.574440e-03
2.534004e-03
2.496469e-03
2.461122e-03
2.421932e-03
2.379096e-03
2.333108e-03
2.287181e-03
2.238381e-03
2.190221e-03
2.140355e-03
2.083729e-03
2.023113e-03
1.963791e-03
1.910015e-03
1.861026e-03
1.822059e-03
1.792296e-03
1.757733e-03
1.725035e-03
1.694325e-03
1.666423e-03
1.638650e-03
1.614974e-03
1.595018e-03
1.579374e-03
1.564674e-03
1.547140e-03
1.531040e-03
1.517932e-03
1.500966e-03
1.482608e-03
1.465683e-03
1.447653e-03
1.429171e-03
1.414933e-03
1.401971e-03
1.389756e-03
1.377554e-03
1.366838e-03
1.357903e-03
1.349450e-03
1.341254e-03
1.332856e-03
1.323849e-03
1.314470e-03
1.305045e-03
1.295420e-03
1.285663e-03
1.276436e-03
1.268663e-03
1.267066e-03
1.289776e-03
1.361714e-03
1.338287e-03
1.509089e-03
1.887654e-03
1.827234e-03
1.329123e-03
5.431652e-04
4.635038e-04
5.195519e-04
5.384104e-04
5.516277e-04
5.685693e-04
5.867893e-04
6.061264e-04
6.261432e-04
6.458711e-04
6.667542e-04
6.895053e-04
7.126978e-04
7.370071e-04
7.615118e-04
7.860414e-04
8.111489e-04
8.370811e-04
8.634720e-04
8.903132e-04
9.164820e-04
9.452595e-04
9.747378e-04
1.008040e-03
1.043437e-03
1.081237e-03
1.124052e-03
1.170458e-03
1.218666e-03
1.268413e-03
1.316714e-03
1.364277e-03
1.411124e-03
1.460299e-03
1.510151e-03
1.561128e-03
1.613210e-03
1.663843e-03
1.714331e-03
1.765969e-03
1.816695e-03
1.869552e-03
1.925435e-03
1.977709e-03
2.028109e-03
2.077178e-03
2.126776e-03
2.173720e-03
2.220734e-03
2.268518e-03
2.316548e-03
2.364925e-03
2.412846e-03
2.463237e-03
2.515195e-03
2.573554e-03
2.637245e-03
2.704160e-03
2.776576e-03
2.849961e-03
2.923328e-03
2.985695e-03
3.034826e-03
3.074714e-03
3.111712e-03
3.151261e-03
3.186432e-03
3.217632e-03
3.243158e-03
3.268462e-03
3.296760e-03
3.322240e-03
3.341555e-03
3.365039e-03
3.393028e-03
3.424066e-03
3.460552e-03
3.502502e-03
3.542786e-03
3.580913e-03
3.617131e-03
3.650158e-03
3.686617e-03
3.726740e-03
3.764415e-03
3.796495e-03
3.817747e-03
3.836708e-03
3.847415e-03
3.854714e-03
3.863740e-03
3.873380e-03
3.875089e-03
3.868781e-03
3.854504e-03
3.834372e-03
3.810387e-03
3.777824e-03
3.741152e-03
3.710917e-03
3.673257e-03
3.632118e-03
3.589974e-03
3.550083e-03
3.513151e-03
3.478058e-03
3.446259e-03
3.421602e-03
3.402080e-03
3.384007e-03
3.364771e-03
3.344172e-03
3.324475e-03
3.306716e-03
3.286922e-03
3.269992e-03
3.254108e-03
3.234154e-03
3.208934e-03
3.177740e-03
3.137568e-03
3.090124e-03
3.035625e-03
2.985366e-03
2.937684e-03
2.889359e-03
2.836544e-03
2.781728e-03
2.729681e-03
2.677429e-03
2.622607e-03
2.562732e-03
2.503223e-03
2.439747e-03
2.373648e-03
2.308525e-03
2.244215e-03
2.183209e-03
2.126729e-03
2.076294e-03
2.032925e-03
1.992112e-03
1.957374e-03
1.921774e-03
1.887042e-03
1.853183e-03
1.823282e-03
1.795037e-03
1.766919e-03
1.739364e-03
1.714930e-03
1.693681e-03
1.671195e-03
1.650160e-03
1.629523e-03
1.609458e-03
1.590556e-03
1.577015e-03
1.565952e-03
1.556288e-03
1.546821e-03
1.536013e-03
1.524580e-03
1.512195e-03
1.499098e-03
1.485612e-03
1.472186e-03
1.458928e-03
1.444990e-03
1.431520e-03
1.418416e-03
1.407897e-03
1.407078e-03
1.423180e-03
1.508046e-03
1.503433e-03
1.770816e-03
2.198441e-03
2.093074e-03
1.515739e-03
5.266426e-04
4.712239e-04
5.351156e-04
5.535239e-04
5.688372e-04
5.870838e-04
6.070608e-04
6.279604e-04
6.490954e-04
6.700896e-04
6.923294e-04
7.154961e-04
7.391934e-04
7.630938e-04
7.870894e-04
8.119797e-04
8.376236e-04
8.639988e-04
8.925089e-04
9.207080e-04
9.525474e-04
9.875587e-04
1.023770e-03
1.061924e-03
1.103646e-03
1.148038e-03
1.196534e-03
1.246759e-03
1.296896e-03
1.345899e-03
1.395733e-03
1.446283e-03
1.497185e-03
1.549602e-03
1.600663e-03
1.652910e-03
1.707849e-03
1.761333e-03
1.813878e-03
1.867654e-03
1.925838e-03
1.982371e-03
2.038561e-03
2.091789e-03
2.141494e-03
2.187871e-03
2.239931e-03
2.294846e-03
2.350954e-03
2.406714e-03
2.465016e-03
2.526851e-03
2.588078e-03
2.650885e-03
2.715252e-03
2.780525e-03
2.847721e-03
2.913107e-03
2.989541e-03
3.064788e-03
3.137487e-03
3.195410e-03
3.239242e-03
3.275096e-03
3.310145e-03
3.349437e-03
3.387022e-03
3.417571e-03
3.449573e-03
3.484506e-03
3.521031e-03
3.556209e-03
3.590105e-03
3.621605e-03
3.656723e-03
3.697472e-03
3.743441e-03
3.791409e-03
3.831977e-03
3.875034e-03
3.920863e-03
3.961859e-03
4.004533e-03
4.049571e-03
4.090769e-03
4.125162e-03
4.152676e-03
4.174168e-03
4.188209e-03
4.193732e-03
4.199403e-03
4.207432e-03
4.213650e-03
4.210641e-03
4.201118e-03
4.183315e-03
4.157133e-03
4.126884e-03
4.094725e-03
4.057754e-03
4.016058e-03
3.979329e-03
3.951305e-03
3.918785e-03
3.883028e-03
3.849452e-03
3.819351e-03
3.797733e-03
3.774691e-03
3.750017e-03
3.728240e-03
3.707755e-03
3.683593e-03
3.659166e-03
3.635361e-03
3.608730e-03
3.584216e-03
3.559562e-03
3.531334e-03
3.500392e-03
3.465475e-03
3.425302e-03
3.379481e-03
3.328464e-03
3.273786e-03
3.213334e-03
3.150650e-03
3.086352e-03
3.024575e-03
2.963885e-03
2.897819e-03
2.827466e-03
2.752000e-03
2.681082e-03
2.610660e-03
2.540746e-03
2.472515e-03
2.409918e-03
2.349491e-03
2.291294e-03
2.237775e-03
2.186881e-03
2.138963e-03
2.090394e-03
2.049063e-03
2.007947e-03
1.970108e-03
1.932807e-03
1.897189e-03
1.866881e-03
1.840658e-03
1.815011e-03
1.791813e-03
1.768877e-03
1.744895e-03
1.721826e-03
1.700949e-03
1.687376e-03
1.675614e-03
1.664135e-03
1.651968e-03
1.637336e-03
1.621935e-03
1.606618e-03
1.590971e-03
1.575428e-03
1.559668e-03
1.543407e-03
1.527558e-03
1.512749e-03
1.497575e-03
1.484562e-03
1.481914e-03
1.499520e-03
1.584838e-03
1.582756e-03
1.918101e-03
2.433920e-03
2.280653e-03
1.620667e-03
4.987527e-04
4.768248e-04
5.518850e-04
5.745630e-04
5.931307e-04
6.129224e-04
6.331360e-04
6.531852e-04
6.736079e-04
6.944714e-04
7.164899e-04
7.394778e-04
7.635791e-04
7.888274e-04
8.148222e-04
8.422056e-04
8.702296e-04
8.993944e-04
9.286438e-04
9.628499e-04
9.984837e-04
1.034963e-03
1.074811e-03
1.117472e-03
1.163828e-03
1.212470e-03
1.262102e-03
1.311629e-03
1.359745e-03
1.410129e-03
1.463263e-03
1.514579e-03
1.566239e-03
1.619440e-03
1.673739e-03
1.728453e-03
1.783886e-03
1.841113e-03
1.898229e-03
1.957635e-03
2.017188e-03
2.076035e-03
2.134122e-03
2.190742e-03
2.245527e-03
2.301016e-03
2.356354e-03
2.410738e-03
2.468682e-03
2.529086e-03
2.593515e-03
2.665848e-03
2.736727e-03
2.802879e-03
2.867395e-03
2.929392e-03
2.996664e-03
3.063688e-03
3.134640e-03
3.213129e-03
3.285569e-03
3.347040e-03
3.393966e-03
3.435374e-03
3.475737e-03
3.518396e-03
3.562006e-03
3.599041e-03
3.633465e-03
3.673918e-03
3.719663e-03
3.766228e-03
3.806413e-03
3.846937e-03
3.894658e-03
3.942625e-03
3.990957e-03
4.040920e-03
4.087884e-03
4.132308e-03
4.172054e-03
4.208220e-03
4.249665e-03
4.290899e-03
4.333456e-03
4.372559e-03
4.402185e-03
4.424279e-03
4.441748e-03
4.450002e-03
4.456427e-03
4.462967e-03
4.468342e-03
4.463469e-03
4.452527e-03
4.434032e-03
4.410373e-03
4.380446e-03
4.351395e-03
4.320484e-03
4.288303e-03
4.253530e-03
4.217953e-03
4.184627e-03
4.157765e-03
4.129651e-03
4.101834e-03
4.081332e-03
4.063683e-03
4.050076e-03
4.027769e-03
3.998530e-03
3.976056e-03
3.953630e-03
3.930646e-03
3.903805e-03
3.872050e-03
3.840885e-03
3.810134e-03
3.776361e-03
3.741398e-03
3.701651e-03
3.656808e-03
3.608643e-03
3.558860e-03
3.502955e-03
3.444388e-03
3.380744e-03
3.317706e-03
3.252462e-03
3.177210e-03
3.091129e-03
3.007110e-03
2.923366e-03
2.841152e-03
2.759249e-03
2.677765e-03
2.603448e-03
2.532097e-03
2.467581e-03
2.408162e-03
2.347466e-03
2.291972e-03
2.238063e-03
2.185699e-03
2.136657e-03
2.092440e-03
2.051733e-03
2.015901e-03
1.983594e-03
1.953843e-03
1.924461e-03
1.895979e-03
1.868474e-03
1.843619e-03
1.819360e-03
1.797345e-03
1.778980e-03
1.762035e-03
1.745720e-03
1.730221e-03
1.713327e-03
1.697045e-03
1.680814e-03
1.664631e-03
1.648932e-03
1.632648e-03
1.615636e-03
1.598056e-03
1.580049e-03
1.563105e-03
1.548500e-03
1.544499e-03
1.562670e-03
1.652091e-03
1.650096e-03
2.049460e-03
2.671350e-03
2.455281e-03
1.707314e-03
4.418536e-04
4.772801e-04
5.784986e-04
6.001288e-04
6.184200e-04
6.374794e-04
6.568618e-04
6.771610e-04
6.992977e-04
7.229276e-04
7.468548e-04
7.708232e-04
7.951720e-04
8.213911e-04
8.515157e-04
8.810601e-04
9.117583e-04
9.443362e-04
9.764883e-04
1.009922e-03
1.046049e-03
1.087470e-03
1.130086e-03
1.175199e-03
1.221978e-03
1.271184e-03
1.319572e-03
1.366966e-03
1.416267e-03
1.467159e-03
1.519022e-03
1.575438e-03
1.630680e-03
1.684522e-03
1.738956e-03
1.792646e-03
1.848811e-03
1.909025e-03
1.973878e-03
2.040231e-03
2.105781e-03
2.169160e-03
2.230635e-03
2.287140e-03
2.344025e-03
2.398933e-03
2.453943e-03
2.510912e-03
2.567148e-03
2.630052e-03
2.693168e-03
2.759806e-03
2.833125e-03
2.907030e-03
2.978554e-03
3.048249e-03
3.117829e-03
3.186501e-03
3.261023e-03
3.337640e-03
3.405706e-03
3.460368e-03
3.511432e-03
3.556353e-03
3.603946e-03
3.652011e-03
3.699410e-03
3.745281e-03
3.788819e-03
3.834600e-03
3.881632e-03
3.930732e-03
3.976732e-03
4.017891e-03
4.063531e-03
4.113280e-03
4.163616e-03
4.204895e-03
4.244281e-03
4.288162e-03
4.327167e-03
4.360822e-03
4.397113e-03
4.436788e-03
4.477674e-03
4.516869e-03
4.553572e-03
4.580414e-03
4.599584e-03
4.612966e-03
4.627321e-03
4.640753e-03
4.649779e-03
4.644110e-03
4.632283e-03
4.618200e-03
4.602357e-03
4.579899e-03
4.559600e-03
4.535439e-03
4.508321e-03
4.478860e-03
4.449381e-03
4.418341e-03
4.386994e-03
4.357244e-03
4.332307e-03
4.311136e-03
4.293820e-03
4.280018e-03
4.264473e-03
4.242374e-03
4.218533e-03
4.198276e-03
4.176064e-03
4.155849e-03
4.130740e-03
4.101816e-03
4.072717e-03
4.042342e-03
4.008247e-03
3.969119e-03
3.925529e-03
3.878406e-03
3.826268e-03
3.772390e-03
3.715348e-03
3.653514e-03
3.589444e-03
3.517958e-03
3.440994e-03
3.355980e-03
3.262371e-03
3.163345e-03
3.066524e-03
2.973634e-03
2.885061e-03
2.796000e-03
2.718724e-03
2.641105e-03
2.573083e-03
2.509927e-03
2.442258e-03
2.377757e-03
2.316647e-03
2.262191e-03
2.209184e-03
2.166942e-03
2.128995e-03
2.091957e-03
2.056161e-03
2.019978e-03
1.991344e-03
1.962618e-03
1.934576e-03
1.906276e-03
1.883216e-03
1.863414e-03
1.845235e-03
1.826525e-03
1.805999e-03
1.785819e-03
1.767880e-03
1.750917e-03
1.733752e-03
1.716008e-03
1.698288e-03
1.680155e-03
1.661835e-03
1.642589e-03
1.623488e-03
1.607457e-03
1.601710e-03
1.620330e-03
1.717630e-03
1.720906e-03
2.217262e-03
2.898370e-03
2.607564e-03
1.791270e-03
3.534084e-04
4.817935e-04
5.993487e-04
6.225712e-04
6.415244e-04
6.615217e-04
6.817278e-04
7.031462e-04
7.254646e-04
7.492377e-04
7.739994e-04
8.005765e-04
8.279376e-04
8.558846e-04
8.865649e-04
9.175820e-04
9.496316e-04
9.820852e-04
1.016276e-03
1.055328e-03
1.096180e-03
1.137666e-03
1.181341e-03
1.225798e-03
1.271991e-03
1.316844e-03
1.363805e-03
1.414021e-03
1.464343e-03
1.518736e-03
1.571801e-03
1.625473e-03
1.681626e-03
1.738065e-03
1.794692e-03
1.851153e-03
1.913911e-03
1.986389e-03
2.055361e-03
2.122557e-03
2.185370e-03
2.243691e-03
2.302656e-03
2.359683e-03
2.412020e-03
2.466390e-03
2.523235e-03
2.579039e-03
2.638520e-03
2.702246e-03
2.765901e-03
2.829799e-03
2.899752e-03
2.974421e-03
3.053465e-03
3.129897e-03
3.199523e-03
3.269661e-03
3.340269e-03
3.405340e-03
3.466843e-03
3.528711e-03
3.584607e-03
3.634181e-03
3.682208e-03
3.733684e-03
3.788335e-03
3.842448e-03
3.893490e-03
3.941162e-03
3.987222e-03
4.033204e-03
4.076894e-03
4.115397e-03
4.156304e-03
4.200014e-03
4.241717e-03
4.279827e-03
4.320758e-03
4.365338e-03
4.406728e-03
4.443591e-03
4.481290e-03
4.523200e-03
4.566194e-03
4.602864e-03
4.634993e-03
4.659678e-03
4.675086e-03
4.685028e-03
4.697441e-03
4.715718e-03
4.729628e-03
4.736447e-03
4.734441e-03
4.734429e-03
4.734324e-03
4.727570e-03
4.711476e-03
4.695433e-03
4.679410e-03
4.657337e-03
4.634418e-03
4.606992e-03
4.579768e-03
4.551005e-03
4.519860e-03
4.498736e-03
4.484239e-03
4.471646e-03
4.455629e-03
4.437009e-03
4.418410e-03
4.398418e-03
4.378802e-03
4.360060e-03
4.336505e-03
4.310308e-03
4.282111e-03
4.254685e-03
4.224834e-03
4.197357e-03
4.162060e-03
4.123625e-03
4.079956e-03
4.026992e-03
3.966097e-03
3.899249e-03
3.833716e-03
3.764619e-03
3.684489e-03
3.596119e-03
3.500724e-03
3.401666e-03
3.299478e-03
3.199920e-03
3.097714e-03
2.995827e-03
2.900326e-03
2.819221e-03
2.741919e-03
2.671878e-03
2.601340e-03
2.531295e-03
2.459997e-03
2.395480e-03
2.334942e-03
2.281600e-03
2.234266e-03
2.193582e-03
2.154907e-03
2.120184e-03
2.085488e-03
2.052891e-03
2.021839e-03
1.991436e-03
1.966157e-03
1.942969e-03
1.923185e-03
1.902738e-03
1.882118e-03
1.860780e-03
1.839317e-03
1.818803e-03
1.799697e-03
1.780452e-03
1.761527e-03
1.742793e-03
1.723645e-03
1.703524e-03
1.682793e-03
1.663483e-03
1.655013e-03
1.675169e-03
1.779056e-03
1.798943e-03
2.405749e-03
3.123482e-03
2.758541e-03
1.876898e-03
2.795362e-04
4.640661e-04
6.110719e-04
6.328049e-04
6.500878e-04
6.706566e-04
6.920420e-04
7.131865e-04
7.376628e-04
7.637451e-04
7.892976e-04
8.158272e-04
8.438131e-04
8.735009e-04
9.042916e-04
9.364764e-04
9.697381e-04
1.007350e-03
1.046503e-03
1.088928e-03
1.131456e-03
1.172948e-03
1.215046e-03
1.258082e-03
1.301239e-03
1.348299e-03
1.399955e-03
1.453235e-03
1.509191e-03
1.564949e-03
1.617498e-03
1.669467e-03
1.727332e-03
1.788749e-03
1.852281e-03
1.914943e-03
1.982190e-03
2.047447e-03
2.114559e-03
2.179158e-03
2.239346e-03
2.295534e-03
2.349005e-03
2.402974e-03
2.456442e-03
2.509094e-03
2.565243e-03
2.625008e-03
2.685410e-03
2.748239e-03
2.810709e-03
2.875754e-03
2.943491e-03
3.016370e-03
3.093158e-03
3.164467e-03
3.233823e-03
3.300162e-03
3.368352e-03
3.431372e-03
3.494449e-03
3.550699e-03
3.600584e-03
3.651789e-03
3.705617e-03
3.759791e-03
3.816013e-03
3.868551e-03
3.922210e-03
3.972343e-03
4.014692e-03
4.056439e-03
4.097301e-03
4.139958e-03
4.179524e-03
4.221887e-03
4.267695e-03
4.313209e-03
4.362428e-03
4.408497e-03