/*--------------------------------*- C++ -*----------------------------------*\
| =========                 |                                                 |
| \\      /  F ield         | OpenFOAM: The Open Source CFD Toolbox           |
|  \\    /   O peration     | Version:  v2406                                 |
|   \\  /    A nd           | Website:  www.openfoam.com                      |
|    \\/     M anipulation  |                                                 |
\*---------------------------------------------------------------------------*/
FoamFile
{
    version     2.0;
    format      ascii;
    class       volScalarField;
    location    "predicted";
    object      p;
}
// * * * * * * * * * * * * * * * * * * * * * * * * * * * * * * * * * * * * * //

dimensions      [0 2 -2 0 0 0 0];

internalField   nonuniform List<scalar>
49181
(
-5.206149e+00
-5.029548e+00
-5.209084e+00
-6.128614e+00
-6.470996e+00
-6.652175e+00
-6.817942e+00
-6.980987e+00
-7.121776e+00
-7.269150e+00
-7.363776e+00
-7.406688e+00
-7.344615e+00
-7.178371e+00
-6.925502e+00
-6.678885e+00
-6.684102e+00
-6.267082e+00
-4.879736e+00
-5.272088e+00
-5.645015e+00
-5.971197e+00
-6.120757e+00
-6.205992e+00
-6.289547e+00
-6.370075e+00
-6.408148e+00
-6.424540e+00
-6.432163e+00
-6.450062e+00
-6.405215e+00
-6.341245e+00
-6.247364e+00
-6.152504e+00
-6.058272e+00
-6.009668e+00
-4.956953e+00
-5.602404e+00
-5.538279e+00
-5.967710e+00
-6.164924e+00
-6.278448e+00
-6.365870e+00
-6.454974e+00
-6.509220e+00
-6.537108e+00
-6.588728e+00
-6.635873e+00
-6.537498e+00
-6.465949e+00
-6.335925e+00
-6.272157e+00
-6.279539e+00
-6.502405e+00
-5.584927e+00
-5.984089e+00
-5.853898e+00
-6.202354e+00
-6.395079e+00
-6.502794e+00
-6.590765e+00
-6.690969e+00
-6.796467e+00
-6.883760e+00
-7.011327e+00
-6.968348e+00
-6.865499e+00
-6.769600e+00
-6.577035e+00
-6.504663e+00
-6.512590e+00
-6.775609e+00
-5.702581e+00
-6.108571e+00
-5.970276e+00
-6.270795e+00
-6.439767e+00
-6.532485e+00
-6.607544e+00
-6.697497e+00
-6.785960e+00
-6.862855e+00
-6.937167e+00
-6.951341e+00
-6.845652e+00
-6.757427e+00
-6.599877e+00
-6.540397e+00
-6.541452e+00
-6.785411e+00
-5.675412e+00
-6.084958e+00
-6.002350e+00
-6.278521e+00
-6.408076e+00
-6.484931e+00
-6.552657e+00
-6.625497e+00
-6.701904e+00
-6.773011e+00
-6.831118e+00
-6.849853e+00
-6.739799e+00
-6.675135e+00
-6.541542e+00
-6.501247e+00
-6.496525e+00
-6.723273e+00
-5.617853e+00
-6.038456e+00
-6.027010e+00
-6.278470e+00
-6.389525e+00
-6.443455e+00
-6.507618e+00
-6.575990e+00
-6.643854e+00
-6.708242e+00
-6.770240e+00
-6.781789e+00
-6.676910e+00
-6.615399e+00
-6.500733e+00
-6.464593e+00
-6.455762e+00
-6.654904e+00
-5.565018e+00
-5.997413e+00
-6.052445e+00
-6.283346e+00
-6.389394e+00
-6.430702e+00
-6.466082e+00
-6.533409e+00
-6.603535e+00
-6.667508e+00
-6.725556e+00
-6.736720e+00
-6.637581e+00
-6.573896e+00
-6.472979e+00
-6.467506e+00
-6.451913e+00
-6.608990e+00
-5.494078e+00
-5.974862e+00
-6.100147e+00
-6.314445e+00
-6.410661e+00
-6.449627e+00
-6.484133e+00
-6.521533e+00
-6.585462e+00
-6.644941e+00
-6.689863e+00
-6.699277e+00
-6.608648e+00
-6.564166e+00
-6.484669e+00
-6.482370e+00
-6.458542e+00
-6.592017e+00
-5.422246e+00
-5.958247e+00
-6.142746e+00
-6.351738e+00
-6.440213e+00
-6.473659e+00
-6.503645e+00
-6.532639e+00
-6.569216e+00
-6.624292e+00
-6.669381e+00
-6.675403e+00
-6.588521e+00
-6.548684e+00
-6.506558e+00
-6.513659e+00
-6.486012e+00
-6.574393e+00
-5.358118e+00
-5.963232e+00
-6.171768e+00
-6.366620e+00
-6.453456e+00
-6.492313e+00
-6.521177e+00
-6.545666e+00
-6.567827e+00
-6.592395e+00
-6.635153e+00
-6.642605e+00
-6.558438e+00
-6.556091e+00
-6.525530e+00
-6.528986e+00
-6.504618e+00
-6.584618e+00
-5.305684e+00
-5.960100e+00
-6.169082e+00
-6.381446e+00
-6.459385e+00
-6.490508e+00
-6.516100e+00
-6.540483e+00
-6.561375e+00
-6.586322e+00
-6.610156e+00
-6.615665e+00
-6.535877e+00
-6.556388e+00
-6.523638e+00
-6.536593e+00
-6.509701e+00
-6.588915e+00
-5.249371e+00
-5.953186e+00
-6.170516e+00
-6.393129e+00
-6.460281e+00
-6.482494e+00
-6.505266e+00
-6.526152e+00
-6.547887e+00
-6.573057e+00
-6.597441e+00
-6.595528e+00
-6.529623e+00
-6.543491e+00
-6.516570e+00
-6.534316e+00
-6.507916e+00
-6.584020e+00
-5.194495e+00
-5.944587e+00
-6.170373e+00
-6.391272e+00
-6.461660e+00
-6.471957e+00
-6.489502e+00
-6.512802e+00
-6.535995e+00
-6.560702e+00
-6.582519e+00
-6.580311e+00
-6.512950e+00
-6.531762e+00
-6.507202e+00
-6.536836e+00
-6.508662e+00
-6.576319e+00
-5.141403e+00
-5.941931e+00
-6.174857e+00
-6.387580e+00
-6.462637e+00
-6.471244e+00
-6.477781e+00
-6.498138e+00
-6.521102e+00
-6.549238e+00
-6.573419e+00
-6.568625e+00
-6.497742e+00
-6.516536e+00
-6.503343e+00
-6.548574e+00
-6.520484e+00
-6.566725e+00
-5.083984e+00
-5.939979e+00
-6.175638e+00
-6.389545e+00
-6.465653e+00
-6.473285e+00
-6.476094e+00
-6.486053e+00
-6.506412e+00
-6.532183e+00
-6.555489e+00
-6.549006e+00
-6.478828e+00
-6.500888e+00
-6.507622e+00
-6.551240e+00
-6.521728e+00
-6.559411e+00
-4.996815e+00
-5.939202e+00
-6.181571e+00
-6.396449e+00
-6.460129e+00
-6.470916e+00
-6.473237e+00
-6.476694e+00
-6.486266e+00
-6.507521e+00
-6.528305e+00
-6.521591e+00
-6.450221e+00
-6.480424e+00
-6.505008e+00
-6.544948e+00
-6.517458e+00
-6.554738e+00
-4.908554e+00
-5.941557e+00
-6.198364e+00
-6.405261e+00
-6.465266e+00
-6.466175e+00
-6.469036e+00
-6.467887e+00
-6.465210e+00
-6.475436e+00
-6.488833e+00
-6.478248e+00
-6.408759e+00
-6.465369e+00
-6.500642e+00
-6.548591e+00
-6.516850e+00
-6.544803e+00
-4.853195e+00
-5.964537e+00
-6.215810e+00
-6.425351e+00
-6.483082e+00
-6.486776e+00
-6.480908e+00
-6.475456e+00
-6.471083e+00
-6.469709e+00
-6.464918e+00
-6.443825e+00
-6.383137e+00
-6.467460e+00
-6.510974e+00
-6.550917e+00
-6.520676e+00
-6.551421e+00
-4.805026e+00
-5.908001e+00
-6.263380e+00
-6.471113e+00
-6.531827e+00
-6.534228e+00
-6.527767e+00
-6.518719e+00
-6.513349e+00
-6.511731e+00
-6.502755e+00
-6.479710e+00
-6.418641e+00
-6.504062e+00
-6.546098e+00
-6.582028e+00
-6.560009e+00
-6.600097e+00
-3.715541e+00
-5.595897e+00
-6.211098e+00
-6.503252e+00
-6.554787e+00
-6.555031e+00
-6.549209e+00
-6.546366e+00
-6.543418e+00
-6.546801e+00
-6.551667e+00
-6.530703e+00
-6.460468e+00
-6.533830e+00
-6.572035e+00
-6.612643e+00
-6.595455e+00
-6.567462e+00
-2.547076e+00
-4.612225e+00
-5.774090e+00
-6.295283e+00
-6.375103e+00
-6.385467e+00
-6.387130e+00
-6.396971e+00
-6.415182e+00
-6.441613e+00
-6.462946e+00
-6.451966e+00
-6.376378e+00
-6.413503e+00
-6.429683e+00
-6.461474e+00
-6.392828e+00
-6.381841e+00
-2.847464e+00
-4.570490e+00
-5.646990e+00
-6.322609e+00
-6.422120e+00
-6.429655e+00
-6.443487e+00
-6.466562e+00
-6.491048e+00
-6.520510e+00
-6.541943e+00
-6.526498e+00
-6.455081e+00
-6.489265e+00
-6.485257e+00
-6.513881e+00
-6.474871e+00
-6.428299e+00
-3.226123e+00
-4.443355e+00
-5.659136e+00
-6.359004e+00
-6.461777e+00
-6.469567e+00
-6.481682e+00
-6.505546e+00
-6.530079e+00
-6.560744e+00
-6.583078e+00
-6.568909e+00
-6.494433e+00
-6.530226e+00
-6.525800e+00
-6.558424e+00
-6.519413e+00
-6.491804e+00
-3.348548e+00
-4.484564e+00
-5.688360e+00
-6.370434e+00
-6.471237e+00
-6.478145e+00
-6.485244e+00
-6.505466e+00
-6.527524e+00
-6.558052e+00
-6.579863e+00
-6.567971e+00
-6.491836e+00
-6.529665e+00
-6.536261e+00
-6.569097e+00
-6.523580e+00
-6.498866e+00
-3.403771e+00
-4.543154e+00
-5.717516e+00
-6.374307e+00
-6.467552e+00
-6.473700e+00
-6.479020e+00
-6.492357e+00
-6.513407e+00
-6.543942e+00
-6.565490e+00
-6.553925e+00
-6.477617e+00
-6.519370e+00
-6.535907e+00
-6.568808e+00
-6.522392e+00
-6.491890e+00
-3.450174e+00
-4.542448e+00
-5.681482e+00
-6.309285e+00
-6.403490e+00
-6.417488e+00
-6.427618e+00
-6.443390e+00
-6.468151e+00
-6.500166e+00
-6.526658e+00
-6.516249e+00
-6.442259e+00
-6.492871e+00
-6.498100e+00
-6.528392e+00
-6.489233e+00
-6.450316e+00
-3.135450e+00
-4.525298e+00
-5.459346e+00
-6.110147e+00
-6.228066e+00
-6.246250e+00
-6.277090e+00
-6.315276e+00
-6.358966e+00
-6.408717e+00
-6.451831e+00
-6.456878e+00
-6.376180e+00
-6.449749e+00
-6.439770e+00
-6.489668e+00
-6.430432e+00
-6.420272e+00
-2.009804e+00
-3.732983e+00
-5.207856e+00
-5.896218e+00
-6.060459e+00
-6.097005e+00
-6.136873e+00
-6.183625e+00
-6.253574e+00
-6.328223e+00
-6.406630e+00
-6.419913e+00
-6.395175e+00
-6.403844e+00
-6.382905e+00
-6.417758e+00
-6.393419e+00
-6.368893e+00
-2.331502e+00
-1.772290e+00
-4.105668e+00
-5.138008e+00
-5.395623e+00
-5.542358e+00
-5.647007e+00
-5.771369e+00
-5.885767e+00
-5.960688e+00
-6.157740e+00
-6.336297e+00
-6.347252e+00
-6.246598e+00
-6.102264e+00
-6.090575e+00
-6.158257e+00
-6.298159e+00
-5.543251e+00
-6.333923e+00
-6.071908e+00
-6.438868e+00
-6.442228e+00
-6.443379e+00
-6.445809e+00
-6.457190e+00
-6.475542e+00
-6.497252e+00
-6.522938e+00
-6.551031e+00
-6.580860e+00
-6.612316e+00
-6.645270e+00
-6.675275e+00
-6.705491e+00
-6.736503e+00
-6.770240e+00
-6.805072e+00
-6.847879e+00
-6.890144e+00
-6.935466e+00
-6.984493e+00
-7.034579e+00
-7.081689e+00
-7.128029e+00
-7.176075e+00
-7.226191e+00
-7.278264e+00
-7.334739e+00
-7.393958e+00
-7.455013e+00
-7.516809e+00
-7.574451e+00
-7.631367e+00
-7.686193e+00
-7.738092e+00
-7.787969e+00
-7.831697e+00
-7.868294e+00
-7.897283e+00
-7.917395e+00
-7.932547e+00
-7.943981e+00
-7.953862e+00
-7.955995e+00
-7.951129e+00
-7.933316e+00
-7.907820e+00
-7.868154e+00
-7.813702e+00
-7.742748e+00
-7.648390e+00
-7.528164e+00
-7.390247e+00
-7.238198e+00
-7.080414e+00
-6.913089e+00
-6.741921e+00
-6.579244e+00
-6.414383e+00
-6.232289e+00
-6.037258e+00
-5.820935e+00
-5.574614e+00
-5.280831e+00
-4.945122e+00
-4.567488e+00
-4.171958e+00
-3.749392e+00
-3.300676e+00
-2.840944e+00
-2.375401e+00
-1.898023e+00
-1.429596e+00
-9.764997e-01
-5.090843e-01
-4.831822e-03
4.767899e-01
9.114926e-01
1.324856e+00
1.725345e+00
2.122278e+00
2.509401e+00
2.908208e+00
3.309006e+00
3.707613e+00
4.094864e+00
4.459577e+00
4.819804e+00
5.161796e+00
5.478042e+00
5.791034e+00
6.128614e+00
6.495952e+00
6.863358e+00
7.175405e+00
7.453673e+00
7.708042e+00
7.939032e+00
8.140278e+00
8.322556e+00
8.494370e+00
8.652573e+00
8.804644e+00
8.949998e+00
9.083871e+00
9.211266e+00
9.330250e+00
9.431819e+00
9.522170e+00
9.602544e+00
9.669115e+00
9.722325e+00
9.756414e+00
9.775273e+00
9.774190e+00
9.759843e+00
9.731976e+00
9.689026e+00
9.652305e+00
9.615506e+00
9.567423e+00
9.514308e+00
9.459781e+00
9.394997e+00
9.324677e+00
9.248576e+00
9.158207e+00
9.072170e+00
8.986253e+00
8.890410e+00
8.788779e+00
8.687430e+00
8.582660e+00
8.484590e+00
8.391661e+00
8.293695e+00
8.201166e+00
8.116174e+00
8.036307e+00
7.974338e+00
7.907590e+00
7.850187e+00
7.794690e+00
7.746455e+00
7.699504e+00
7.653500e+00
7.607117e+00
7.565623e+00
7.525234e+00
7.487111e+00
7.454054e+00
7.428401e+00
7.411476e+00
7.393892e+00
7.385453e+00
7.383554e+00
7.383195e+00
7.386681e+00
7.397813e+00
7.415876e+00
7.436909e+00
7.462959e+00
7.489976e+00
7.520479e+00
7.553788e+00
7.586003e+00
7.620526e+00
7.661631e+00
7.722502e+00
7.884720e+00
8.302772e+00
8.931761e+00
8.764854e+00
8.632653e+00
8.729611e+00
8.483261e+00
7.830132e+00
-6.328007e+00
-6.634671e+00
-6.781974e+00
-6.819193e+00
-6.836097e+00
-6.835129e+00
-6.830443e+00
-6.826975e+00
-6.824665e+00
-6.823004e+00
-6.821329e+00
-6.825493e+00
-6.835644e+00
-6.848861e+00
-6.867798e+00
-6.895959e+00
-6.924622e+00
-6.951370e+00
-6.980084e+00
-7.012684e+00
-7.046986e+00
-7.080804e+00
-7.113883e+00
-7.148722e+00
-7.185285e+00
-7.226399e+00
-7.270047e+00
-7.311704e+00
-7.356371e+00
-7.402882e+00
-7.447239e+00
-7.491463e+00
-7.538504e+00
-7.590241e+00
-7.643608e+00
-7.697249e+00
-7.746675e+00
-7.789043e+00
-7.826351e+00
-7.859372e+00
-7.886931e+00
-7.915105e+00
-7.940391e+00
-7.962571e+00
-7.980885e+00
-7.991059e+00
-7.987495e+00
-7.970182e+00
-7.945815e+00
-7.915801e+00
-7.878871e+00
-7.830288e+00
-7.770435e+00
-7.713082e+00
-7.654939e+00
-7.579907e+00
-7.492574e+00
-7.388888e+00
-7.258872e+00
-7.115744e+00
-6.971205e+00
-6.791260e+00
-6.602337e+00
-6.404181e+00
-6.194075e+00
-5.962386e+00
-5.716876e+00
-5.444044e+00
-5.133361e+00
-4.785659e+00
-4.419734e+00
-4.016111e+00
-3.546906e+00
-3.114419e+00
-2.727759e+00
-2.330216e+00
-1.925646e+00
-1.505819e+00
-1.071462e+00
-6.183408e-01
-1.605197e-01
3.250994e-01
8.148892e-01
1.295182e+00
1.754848e+00
2.230614e+00
2.669887e+00
3.080615e+00
3.472797e+00
3.856237e+00
4.236639e+00
4.603947e+00
4.967501e+00
5.321611e+00
5.687650e+00
6.035656e+00
6.385704e+00
6.708662e+00
6.991518e+00
7.254563e+00
7.495991e+00
7.712862e+00
7.909770e+00
8.088002e+00
8.249626e+00
8.403024e+00
8.536922e+00
8.651679e+00
8.756699e+00
8.849697e+00
8.936604e+00
9.015423e+00
9.076209e+00
9.121931e+00
9.156630e+00
9.171534e+00
9.165002e+00
9.147609e+00
9.117910e+00
9.084666e+00
9.047065e+00
8.994613e+00
8.931784e+00
8.864741e+00
8.797048e+00
8.731008e+00
8.650666e+00
8.550369e+00
8.434616e+00
8.305788e+00
8.163338e+00
8.033967e+00
7.930462e+00
7.825464e+00
7.721201e+00
7.615087e+00
7.501164e+00
7.400441e+00
7.297860e+00
7.201222e+00
7.129712e+00
7.075365e+00
7.027301e+00
6.987154e+00
6.951186e+00
6.920304e+00
6.882129e+00
6.832062e+00
6.781626e+00
6.747842e+00
6.719362e+00
6.695993e+00
6.679471e+00
6.671672e+00
6.680877e+00
6.698085e+00
6.717561e+00
6.735950e+00
6.752804e+00
6.775027e+00
6.799050e+00
6.830604e+00
6.871823e+00
6.913540e+00
6.950749e+00
6.988759e+00
7.040784e+00
7.097229e+00
7.150319e+00
7.201962e+00
7.255054e+00
7.324629e+00
7.474027e+00
7.652075e+00
8.239130e+00
7.750652e+00
8.015837e+00
9.687251e+00
9.835141e+00
1.072208e+01
-6.041018e+00
-6.719420e+00
-6.654168e+00
-6.706727e+00
-6.727299e+00
-6.728957e+00
-6.727858e+00
-6.728557e+00
-6.731445e+00
-6.737874e+00
-6.745364e+00
-6.752819e+00
-6.759657e+00
-6.765188e+00
-6.775338e+00
-6.791170e+00
-6.817724e+00
-6.848767e+00
-6.884145e+00
-6.920626e+00
-6.957023e+00
-6.992408e+00
-7.025205e+00
-7.059231e+00
-7.101242e+00
-7.147728e+00
-7.201694e+00
-7.256710e+00
-7.312052e+00
-7.364580e+00
-7.417151e+00
-7.463848e+00
-7.507256e+00
-7.551121e+00
-7.601214e+00
-7.654299e+00
-7.712412e+00
-7.764863e+00
-7.811696e+00
-7.853337e+00
-7.891724e+00
-7.925326e+00
-7.952910e+00
-7.976889e+00
-7.985854e+00
-7.986457e+00
-7.968939e+00
-7.937912e+00
-7.894822e+00
-7.842590e+00
-7.784702e+00
-7.720243e+00
-7.650186e+00
-7.571706e+00
-7.487949e+00
-7.390661e+00
-7.278466e+00
-7.150507e+00
-7.022280e+00
-6.889168e+00
-6.744301e+00
-6.588059e+00
-6.425873e+00
-6.253558e+00
-6.041127e+00
-5.789787e+00
-5.509779e+00
-5.208387e+00
-4.911689e+00
-4.592322e+00
-4.285617e+00
-3.948190e+00
-3.575568e+00
-3.196979e+00
-2.827198e+00
-2.463241e+00
-2.103189e+00
-1.740278e+00
-1.359832e+00
-9.440554e-01
-4.962645e-01
-3.004489e-02
4.310378e-01
8.893916e-01
1.363256e+00
1.824851e+00
2.271978e+00
2.721168e+00
3.131220e+00
3.544905e+00
3.944876e+00
4.322877e+00
4.680973e+00
5.027291e+00
5.328334e+00
5.606842e+00
5.877160e+00
6.140839e+00
6.392584e+00
6.648645e+00
6.897209e+00
7.133474e+00
7.358543e+00
7.575413e+00
7.788684e+00
7.994847e+00
8.191770e+00
8.382582e+00
8.565596e+00
8.732610e+00
8.881392e+00
9.009827e+00
9.114908e+00
9.201378e+00
9.271546e+00
9.322904e+00
9.352882e+00
9.369799e+00
9.367193e+00
9.356804e+00
9.341121e+00
9.320192e+00
9.292533e+00
9.258239e+00
9.224332e+00
9.165197e+00
9.086138e+00
8.984028e+00
8.864821e+00
8.731435e+00
8.576082e+00
8.412030e+00
8.238936e+00
8.054775e+00
7.862025e+00
7.670617e+00
7.486177e+00
7.314169e+00
7.151495e+00
7.002258e+00
6.883555e+00
6.785812e+00
6.724835e+00
6.674217e+00
6.621881e+00
6.567227e+00
6.518787e+00
6.471633e+00
6.421634e+00
6.384461e+00
6.347301e+00
6.314027e+00
6.285943e+00
6.259018e+00
6.238661e+00
6.229647e+00
6.232439e+00
6.239564e+00
6.254223e+00
6.276177e+00
6.299603e+00
6.331297e+00
6.361903e+00
6.397956e+00
6.433284e+00
6.469256e+00
6.508592e+00
6.548770e+00
6.591527e+00
6.637425e+00
6.684727e+00
6.750779e+00
6.895591e+00
7.234994e+00
7.569153e+00
6.256021e+00
6.400219e+00
7.834077e+00
8.197080e+00
1.006266e+01
-6.406104e+00
-6.784239e+00
-6.707830e+00
-6.868509e+00
-6.920696e+00
-6.931908e+00
-6.940259e+00
-6.945661e+00
-6.953349e+00
-6.962859e+00
-6.975081e+00
-6.988049e+00
-6.998813e+00
-7.013077e+00
-7.033009e+00
-7.052352e+00
-7.068619e+00
-7.081590e+00
-7.102196e+00
-7.131742e+00
-7.164017e+00
-7.202480e+00
-7.244110e+00
-7.283044e+00
-7.323954e+00
-7.365845e+00
-7.409936e+00
-7.460340e+00
-7.518761e+00
-7.580411e+00
-7.640767e+00
-7.694423e+00
-7.745445e+00
-7.791586e+00
-7.841149e+00
-7.896593e+00
-7.948598e+00
-7.999126e+00
-8.045374e+00
-8.090857e+00
-8.134574e+00
-8.173250e+00
-8.202299e+00
-8.223019e+00
-8.231000e+00
-8.226070e+00
-8.210293e+00
-8.178835e+00
-8.134835e+00
-8.085061e+00
-8.033849e+00
-7.972053e+00
-7.899361e+00
-7.816701e+00
-7.715331e+00
-7.598927e+00
-7.472987e+00
-7.337688e+00
-7.192400e+00
-7.034567e+00
-6.856326e+00
-6.670125e+00
-6.505952e+00
-6.353274e+00
-6.201676e+00
-6.011475e+00
-5.797569e+00
-5.552300e+00
-5.270048e+00
-4.975987e+00
-4.668480e+00
-4.345384e+00
-3.993411e+00
-3.599678e+00
-3.236069e+00
-2.876014e+00
-2.501043e+00
-2.102778e+00
-1.677856e+00
-1.232645e+00
-8.186146e-01
-3.678355e-01
1.075535e-01
5.656158e-01
1.053687e+00
1.549598e+00
2.064363e+00
2.556341e+00
3.032212e+00
3.499678e+00
3.918624e+00
4.312748e+00
4.680714e+00
5.029319e+00
5.350536e+00
5.667121e+00
5.981183e+00
6.266357e+00
6.542585e+00
6.817771e+00
7.095096e+00
7.357758e+00
7.606288e+00
7.856681e+00
8.114558e+00
8.372856e+00
8.622040e+00
8.862260e+00
9.102391e+00
9.328169e+00
9.532540e+00
9.723032e+00
9.897673e+00
1.004931e+01
1.018746e+01
1.030568e+01
1.039923e+01
1.046798e+01
1.052582e+01
1.057597e+01
1.061037e+01
1.062027e+01
1.060754e+01
1.059013e+01
1.056152e+01
1.050341e+01
1.041586e+01
1.030827e+01
1.018415e+01
1.004938e+01
9.900403e+00
9.733267e+00
9.541105e+00
9.312814e+00
9.059630e+00
8.788082e+00
8.527816e+00
8.285775e+00
8.082296e+00
7.881488e+00
7.697916e+00
7.520595e+00
7.371014e+00
7.230679e+00
7.112703e+00
7.018193e+00
6.933349e+00
6.850281e+00
6.776505e+00
6.708586e+00
6.645823e+00
6.577746e+00
6.515110e+00
6.466463e+00
6.426238e+00
6.390814e+00
6.379615e+00
6.375299e+00
6.375633e+00
6.391676e+00
6.416545e+00
6.445488e+00
6.476022e+00
6.507134e+00
6.542478e+00
6.576316e+00
6.609658e+00
6.644261e+00
6.680493e+00
6.718545e+00
6.760440e+00
6.820620e+00
6.971525e+00
7.380894e+00
7.854875e+00
6.125902e+00
6.462390e+00
7.853010e+00
7.756639e+00
9.691758e+00
-6.505051e+00
-6.808840e+00
-6.771622e+00
-6.943325e+00
-7.004928e+00
-7.029119e+00
-7.048358e+00
-7.065558e+00
-7.081985e+00
-7.098938e+00
-7.112080e+00
-7.125124e+00
-7.133041e+00
-7.140308e+00
-7.149455e+00
-7.160991e+00
-7.172587e+00
-7.185503e+00
-7.200372e+00
-7.220608e+00
-7.246758e+00
-7.278596e+00
-7.312464e+00
-7.347486e+00
-7.382807e+00
-7.427507e+00
-7.483239e+00
-7.539967e+00
-7.590203e+00
-7.643779e+00
-7.696127e+00
-7.745698e+00
-7.794652e+00
-7.845809e+00
-7.898631e+00
-7.947576e+00
-7.994542e+00
-8.036746e+00
-8.072989e+00
-8.108900e+00
-8.138052e+00
-8.156716e+00
-8.177470e+00
-8.191138e+00
-8.196969e+00
-8.190613e+00
-8.174809e+00
-8.157830e+00
-8.124451e+00
-8.079285e+00
-8.028232e+00
-7.969615e+00
-7.902194e+00
-7.816993e+00
-7.719389e+00
-7.611289e+00
-7.484354e+00
-7.349816e+00
-7.201628e+00
-7.039394e+00
-6.839908e+00
-6.666389e+00
-6.519340e+00
-6.397388e+00
-6.262525e+00
-6.091845e+00
-5.902245e+00
-5.688424e+00
-5.450341e+00
-5.177650e+00
-4.858211e+00
-4.519043e+00
-4.156324e+00
-3.767925e+00
-3.374713e+00
-2.989983e+00
-2.596678e+00
-2.176065e+00
-1.743453e+00
-1.319990e+00
-8.835263e-01
-4.283740e-01
6.374378e-02
5.722946e-01
1.093203e+00
1.595438e+00
2.071506e+00
2.555184e+00
3.038331e+00
3.485940e+00
3.899155e+00
4.293266e+00
4.664052e+00
4.995735e+00
5.300882e+00
5.595898e+00
5.893582e+00
6.177165e+00
6.452285e+00
6.745617e+00
7.057409e+00
7.370137e+00
7.653035e+00
7.920189e+00
8.181328e+00
8.440098e+00
8.689984e+00
8.934475e+00
9.163762e+00
9.372439e+00
9.567656e+00
9.758957e+00
9.946816e+00
1.012943e+01
1.030254e+01
1.046020e+01
1.060194e+01
1.072250e+01
1.082171e+01
1.090555e+01
1.096444e+01
1.099516e+01
1.099617e+01
1.099223e+01
1.096163e+01
1.089759e+01
1.080923e+01
1.069845e+01
1.057291e+01
1.043466e+01
1.027779e+01
1.009764e+01
9.899516e+00
9.679824e+00
9.430283e+00
9.181318e+00
8.918497e+00
8.647301e+00
8.393202e+00
8.177455e+00
7.981196e+00
7.793361e+00
7.612208e+00
7.436157e+00
7.281563e+00
7.153279e+00
7.036036e+00
6.938985e+00
6.849479e+00
6.774600e+00
6.705853e+00
6.639052e+00
6.571522e+00
6.511736e+00
6.463556e+00
6.430132e+00
6.410662e+00
6.412091e+00
6.420666e+00
6.431565e+00
6.447247e+00
6.472864e+00
6.498521e+00
6.521815e+00
6.543401e+00
6.569287e+00
6.596344e+00
6.625077e+00
6.650369e+00
6.679484e+00
6.714026e+00
6.770402e+00
6.935412e+00
7.334571e+00
7.848678e+00
6.083023e+00
6.737675e+00
8.109494e+00
7.934979e+00
9.625223e+00
-6.608231e+00
-6.795194e+00
-6.803383e+00
-7.002970e+00
-7.078290e+00
-7.104656e+00
-7.124463e+00
-7.143749e+00
-7.161165e+00
-7.177311e+00
-7.195083e+00
-7.206158e+00
-7.214410e+00
-7.223803e+00
-7.235302e+00
-7.248236e+00
-7.262447e+00
-7.276886e+00
-7.295495e+00
-7.319829e+00
-7.349090e+00
-7.375356e+00
-7.400965e+00
-7.431893e+00
-7.469310e+00
-7.509970e+00
-7.554661e+00
-7.599759e+00
-7.646370e+00
-7.697566e+00
-7.747444e+00
-7.793936e+00
-7.835404e+00
-7.885767e+00
-7.930685e+00
-7.969886e+00
-8.001791e+00
-8.027321e+00
-8.052658e+00
-8.070690e+00
-8.088588e+00
-8.102064e+00
-8.109652e+00
-8.111492e+00
-8.110232e+00
-8.113088e+00
-8.111417e+00
-8.099432e+00
-8.075537e+00
-8.043441e+00
-8.004301e+00
-7.949511e+00
-7.880428e+00
-7.807177e+00
-7.722605e+00
-7.637745e+00
-7.533544e+00
-7.409294e+00
-7.238015e+00
-7.049215e+00
-6.867227e+00
-6.700859e+00
-6.567553e+00
-6.437394e+00
-6.290272e+00
-6.120285e+00
-5.931059e+00
-5.736472e+00
-5.511597e+00
-5.242930e+00
-4.917757e+00
-4.555868e+00
-4.168561e+00
-3.764651e+00
-3.342344e+00
-2.906344e+00
-2.458864e+00
-2.005381e+00
-1.607205e+00
-1.181115e+00
-7.072105e-01
-2.200559e-01
2.744679e-01
7.762490e-01
1.246068e+00
1.667301e+00
2.094584e+00
2.528569e+00
2.946889e+00
3.355421e+00
3.766494e+00
4.160579e+00
4.543524e+00
4.898803e+00
5.236158e+00
5.559169e+00
5.860021e+00
6.140331e+00
6.433388e+00
6.746257e+00
7.056146e+00
7.357307e+00
7.648531e+00
7.896759e+00
8.114369e+00
8.332007e+00
8.559009e+00
8.787278e+00
9.002486e+00
9.209097e+00
9.409669e+00
9.602156e+00
9.787996e+00
9.973532e+00
1.014688e+01
1.030985e+01
1.046026e+01
1.059326e+01
1.070937e+01
1.080601e+01
1.088439e+01
1.093704e+01
1.095779e+01
1.095764e+01
1.092179e+01
1.085135e+01
1.075400e+01
1.064478e+01
1.051972e+01
1.038115e+01
1.020946e+01
1.000719e+01
9.774086e+00
9.523228e+00
9.279590e+00
9.013906e+00
8.762292e+00
8.525544e+00
8.282684e+00
8.055565e+00
7.855733e+00
7.673475e+00
7.480340e+00
7.293043e+00
7.130361e+00
6.985008e+00
6.861978e+00
6.767725e+00
6.682232e+00
6.601305e+00
6.525860e+00
6.453433e+00
6.391477e+00
6.339510e+00
6.302354e+00
6.270078e+00
6.251507e+00
6.255948e+00
6.264103e+00
6.275376e+00
6.284489e+00
6.303350e+00
6.322184e+00
6.342420e+00
6.366610e+00
6.391003e+00
6.415706e+00
6.443670e+00
6.475942e+00
6.511955e+00
6.552522e+00
6.611541e+00
6.774402e+00
7.156163e+00
7.656611e+00
5.840274e+00
6.553277e+00
8.174799e+00
7.944915e+00
9.454591e+00
-6.674800e+00
-6.775514e+00
-6.842293e+00
-7.053980e+00
-7.122810e+00
-7.146800e+00
-7.169831e+00
-7.191498e+00
-7.214526e+00
-7.234189e+00
-7.250110e+00
-7.266191e+00
-7.280620e+00
-7.295203e+00
-7.314734e+00
-7.333071e+00
-7.355521e+00
-7.379871e+00
-7.400879e+00
-7.420165e+00
-7.441123e+00
-7.463370e+00
-7.489024e+00
-7.521643e+00
-7.557916e+00
-7.588172e+00
-7.615098e+00
-7.651167e+00
-7.696606e+00
-7.747238e+00
-7.796975e+00
-7.846393e+00
-7.888833e+00
-7.928703e+00
-7.961614e+00
-7.988507e+00
-8.009373e+00
-8.022955e+00
-8.031054e+00
-8.046852e+00
-8.055667e+00
-8.050766e+00
-8.049698e+00
-8.060139e+00
-8.070355e+00
-8.070205e+00
-8.073276e+00
-8.061020e+00
-8.049899e+00
-8.028126e+00
-7.999017e+00
-7.953852e+00
-7.903127e+00
-7.858478e+00
-7.807151e+00
-7.732311e+00
-7.621164e+00
-7.480651e+00
-7.316640e+00
-7.132589e+00
-6.948651e+00
-6.777317e+00
-6.629989e+00
-6.481496e+00
-6.312824e+00
-6.121868e+00
-5.917073e+00
-5.698597e+00
-5.468413e+00
-5.186264e+00
-4.848261e+00
-4.450134e+00
-4.057700e+00
-3.648866e+00
-3.191653e+00
-2.715515e+00
-2.258859e+00
-1.819304e+00
-1.383218e+00
-9.167145e-01
-4.826239e-01
-4.669767e-02
3.810667e-01
8.162526e-01
1.240864e+00
1.627135e+00
2.008191e+00
2.402484e+00
2.772069e+00
3.154317e+00
3.555760e+00
3.981531e+00
4.389702e+00
4.781684e+00
5.145892e+00
5.489823e+00
5.831795e+00
6.131735e+00
6.447935e+00
6.759884e+00
7.073953e+00
7.370455e+00
7.639358e+00
7.865148e+00
8.052599e+00
8.238156e+00
8.430721e+00
8.628605e+00
8.828730e+00
9.026847e+00
9.222593e+00
9.409584e+00
9.595929e+00
9.774252e+00
9.949014e+00
1.011109e+01
1.025693e+01
1.039105e+01
1.050928e+01
1.061029e+01
1.069561e+01
1.076023e+01
1.080780e+01
1.082753e+01
1.080763e+01
1.074479e+01
1.065598e+01
1.053898e+01
1.040949e+01
1.025573e+01
1.007154e+01
9.849263e+00
9.611494e+00
9.351156e+00
9.079189e+00
8.808069e+00
8.554511e+00
8.312451e+00
8.070280e+00
7.853225e+00
7.680198e+00
7.484746e+00
7.293332e+00
7.105372e+00
6.931669e+00
6.787335e+00
6.654139e+00
6.549016e+00
6.466137e+00
6.385966e+00
6.311194e+00
6.244950e+00
6.188927e+00
6.142094e+00
6.110318e+00
6.083413e+00
6.067355e+00
6.058792e+00
6.055600e+00
6.059481e+00
6.066871e+00
6.078474e+00
6.099672e+00
6.126847e+00
6.153810e+00
6.184046e+00
6.212361e+00
6.243030e+00
6.274901e+00
6.306768e+00
6.344360e+00
6.399812e+00
6.558542e+00
6.960433e+00
7.434150e+00
5.557353e+00
6.249135e+00
8.180820e+00
7.904917e+00
9.238886e+00
-6.748002e+00
-6.760457e+00
-6.858484e+00
-7.096889e+00
-7.172159e+00
-7.193892e+00
-7.210838e+00
-7.227159e+00
-7.246752e+00
-7.266003e+00
-7.285534e+00
-7.306017e+00
-7.324987e+00
-7.346338e+00
-7.371233e+00
-7.394344e+00
-7.414330e+00
-7.430882e+00
-7.453476e+00
-7.478317e+00
-7.503513e+00
-7.532920e+00
-7.565789e+00
-7.595600e+00
-7.622651e+00
-7.650187e+00
-7.672877e+00
-7.699707e+00
-7.735670e+00
-7.787862e+00
-7.835147e+00
-7.887382e+00
-7.929959e+00
-7.964230e+00
-7.989592e+00
-8.004926e+00
-8.012291e+00
-8.015445e+00
-8.025087e+00
-8.033051e+00
-8.035855e+00
-8.035899e+00
-8.031784e+00
-8.043351e+00
-8.057258e+00
-8.062388e+00
-8.066774e+00
-8.076736e+00
-8.076075e+00
-8.075127e+00
-8.058050e+00
-8.038055e+00
-8.018627e+00
-7.996972e+00
-7.956746e+00
-7.879370e+00
-7.750287e+00
-7.602486e+00
-7.432742e+00
-7.230725e+00
-7.033086e+00
-6.863391e+00
-6.693486e+00
-6.528264e+00
-6.340478e+00
-6.129541e+00
-5.898784e+00
-5.638359e+00
-5.375004e+00
-5.064536e+00
-4.709840e+00
-4.318229e+00
-3.910219e+00
-3.505182e+00
-3.076787e+00
-2.625618e+00
-2.180625e+00
-1.744187e+00
-1.305289e+00
-8.655138e-01
-4.301138e-01
-2.540309e-02
3.725505e-01
7.669901e-01
1.160088e+00
1.523210e+00
1.883766e+00
2.251419e+00
2.611564e+00
2.980566e+00
3.352441e+00
3.746374e+00
4.194594e+00
4.645089e+00
5.060930e+00
5.422769e+00
5.769438e+00
6.086783e+00
6.408864e+00
6.716343e+00
7.021992e+00
7.296532e+00
7.555005e+00
7.796191e+00
7.996215e+00
8.185067e+00
8.373281e+00
8.562402e+00
8.743411e+00
8.923429e+00
9.104755e+00
9.284139e+00
9.456945e+00
9.624823e+00
9.781532e+00
9.932499e+00
1.006731e+01
1.018364e+01
1.028633e+01
1.038764e+01
1.048019e+01
1.055723e+01
1.061625e+01
1.064342e+01
1.062868e+01
1.058259e+01
1.050745e+01
1.041118e+01
1.027729e+01
1.010980e+01
9.923372e+00
9.699958e+00
9.443042e+00
9.177431e+00
8.910586e+00
8.651705e+00
8.380091e+00
8.110431e+00
7.873547e+00
7.662573e+00
7.472511e+00
7.294802e+00
7.122163e+00
6.945143e+00
6.767015e+00
6.609960e+00
6.459392e+00
6.341998e+00
6.252086e+00
6.177765e+00
6.113528e+00
6.055373e+00
6.013407e+00
5.974129e+00
5.932793e+00
5.892334e+00
5.869005e+00
5.857301e+00
5.852822e+00
5.852150e+00
5.856495e+00
5.874372e+00
5.900910e+00
5.934470e+00
5.967017e+00
5.993586e+00
6.015965e+00
6.039369e+00
6.066060e+00
6.095951e+00
6.130357e+00
6.183340e+00
6.342642e+00
6.755415e+00
7.224724e+00
5.283988e+00
5.998013e+00
8.226418e+00
7.887882e+00
9.027611e+00
-6.837977e+00
-6.744651e+00
-6.877668e+00
-7.142876e+00
-7.214160e+00
-7.234015e+00
-7.256248e+00
-7.280246e+00
-7.302981e+00
-7.321369e+00
-7.338720e+00
-7.355762e+00
-7.372636e+00
-7.391386e+00
-7.411934e+00
-7.430431e+00
-7.448582e+00
-7.464424e+00
-7.485025e+00
-7.517796e+00
-7.550283e+00
-7.581619e+00
-7.611725e+00
-7.639243e+00
-7.660512e+00
-7.678099e+00
-7.706133e+00
-7.743238e+00
-7.786284e+00
-7.830729e+00
-7.878057e+00
-7.917652e+00
-7.950408e+00
-7.975381e+00
-7.998046e+00
-8.012158e+00
-8.025938e+00
-8.038978e+00
-8.049675e+00
-8.056496e+00
-8.065718e+00
-8.071602e+00
-8.079691e+00
-8.085435e+00
-8.096073e+00
-8.108958e+00
-8.124807e+00
-8.150417e+00
-8.172369e+00
-8.176233e+00
-8.171524e+00
-8.162545e+00
-8.153945e+00
-8.126219e+00
-8.056795e+00
-7.955160e+00
-7.842400e+00
-7.689215e+00
-7.506831e+00
-7.308651e+00
-7.116046e+00
-6.929121e+00
-6.740246e+00
-6.551252e+00
-6.350807e+00
-6.124629e+00
-5.867113e+00
-5.580146e+00
-5.277985e+00
-4.946038e+00
-4.578577e+00
-4.188569e+00
-3.798612e+00
-3.410219e+00
-3.018038e+00
-2.585700e+00
-2.150416e+00
-1.743609e+00
-1.300833e+00
-8.356055e-01
-4.010749e-01
-1.497295e-02
3.387250e-01
7.036309e-01
1.073778e+00
1.422905e+00
1.757614e+00
2.112585e+00
2.476193e+00
2.843988e+00
3.211256e+00
3.588189e+00
4.012147e+00
4.487282e+00
4.953699e+00
5.336067e+00
5.677479e+00
6.014338e+00
6.336005e+00
6.654159e+00
6.931260e+00
7.196738e+00
7.457734e+00
7.720567e+00
7.959576e+00
8.166299e+00
8.356514e+00
8.541420e+00
8.725860e+00
8.903754e+00
9.081345e+00
9.254177e+00
9.403765e+00
9.539511e+00
9.675014e+00
9.803615e+00
9.915581e+00
1.001698e+01
1.011633e+01
1.020860e+01
1.028826e+01
1.036891e+01
1.043621e+01
1.046597e+01
1.045916e+01
1.041684e+01
1.034732e+01
1.025775e+01
1.014585e+01
9.999662e+00
9.807949e+00
9.572202e+00
9.313835e+00
9.042627e+00
8.769126e+00
8.507520e+00
8.236827e+00
7.956357e+00
7.694493e+00
7.464816e+00
7.255952e+00
7.088494e+00
6.932780e+00
6.782769e+00
6.626797e+00
6.455419e+00
6.290734e+00
6.163508e+00
6.056507e+00
5.984648e+00
5.924083e+00
5.879868e+00
5.839143e+00
5.796715e+00
5.754783e+00
5.715843e+00
5.693170e+00
5.677471e+00
5.667748e+00
5.667169e+00
5.676711e+00
5.692511e+00
5.710865e+00