/*--------------------------------*- C++ -*----------------------------------*\
| =========                 |                                                 |
| \\      /  F ield         | OpenFOAM: The Open Source CFD Toolbox           |
|  \\    /   O peration     | Version:  v2406                                 |
|   \\  /    A nd           | Website:  www.openfoam.com                      |
|    \\/     M anipulation  |                                                 |
\*---------------------------------------------------------------------------*/
FoamFile
{
    version     2.0;
    format      ascii;
    class       volVectorField;
    location    "predicted";
    object      U;
}
// * * * * * * * * * * * * * * * * * * * * * * * * * * * * * * * * * * * * * //

dimensions      [0 1 -1 0 0 0 0];

internalField   nonuniform List<vector>
49181
(
(7.320054e+00 1.173314e-01 -3.499715e-01)
(8.510300e+00 1.218904e-02 -1.115037e-02)
(8.891189e+00 1.410707e-01 -1.426362e-01)
(8.756354e+00 1.653881e-01 -1.806934e-01)
(8.735527e+00 1.747219e-01 -2.055492e-01)
(8.676969e+00 1.760026e-01 -2.126258e-01)
(8.577210e+00 1.784640e-01 -2.226775e-01)
(8.382670e+00 1.864895e-01 -2.364874e-01)
(8.099022e+00 2.014592e-01 -2.526473e-01)
(7.748652e+00 2.171896e-01 -2.670726e-01)
(7.498558e+00 2.317869e-01 -2.804876e-01)
(7.414151e+00 2.363405e-01 -2.855801e-01)
(7.467992e+00 2.332522e-01 -2.832063e-01)
(7.621471e+00 2.283328e-01 -2.708465e-01)
(7.802551e+00 2.211077e-01 -2.521708e-01)
(7.947321e+00 2.104209e-01 -2.437156e-01)
(7.804386e+00 1.523015e-01 -2.067037e-01)
(7.424527e+00 1.874376e-01 -3.261417e-01)
(8.641109e+00 7.127783e-03 8.058188e-03)
(1.116370e+01 1.494823e-01 -6.097484e-02)
(1.167358e+01 1.347998e-01 -5.323973e-02)
(1.210717e+01 1.451141e-01 -6.895065e-02)
(1.225822e+01 1.448541e-01 -8.124084e-02)
(1.214112e+01 1.398567e-01 -9.809911e-02)
(1.200295e+01 1.352511e-01 -1.079956e-01)
(1.176034e+01 1.351838e-01 -1.136396e-01)
(1.134553e+01 1.361336e-01 -1.127667e-01)
(1.077348e+01 1.441883e-01 -1.082048e-01)
(1.039599e+01 1.463394e-01 -1.073143e-01)
(1.018957e+01 1.472628e-01 -1.046633e-01)
(1.033898e+01 1.468382e-01 -1.055673e-01)
(1.082531e+01 1.502094e-01 -1.117717e-01)
(1.132632e+01 1.609110e-01 -1.125144e-01)
(1.151778e+01 1.646566e-01 -9.733520e-02)
(1.128876e+01 1.476131e-01 -1.015986e-01)
(1.029073e+01 1.090114e-01 -8.558555e-02)
(9.569116e+00 1.267746e-01 -1.304310e-01)
(1.177162e+01 1.246636e-01 -5.099368e-02)
(1.206192e+01 9.757325e-02 -5.854805e-02)
(1.287767e+01 1.033658e-01 -7.307652e-02)
(1.318114e+01 1.059767e-01 -7.109694e-02)
(1.332470e+01 1.057343e-01 -6.702910e-02)
(1.342752e+01 1.037739e-01 -6.613488e-02)
(1.348322e+01 1.000821e-01 -6.326861e-02)
(1.346010e+01 9.842898e-02 -6.784868e-02)
(1.332131e+01 9.634919e-02 -7.398757e-02)
(1.315232e+01 9.424071e-02 -7.966388e-02)
(1.308933e+01 8.790093e-02 -8.391609e-02)
(1.308648e+01 8.751394e-02 -8.220105e-02)
(1.333631e+01 1.014185e-01 -6.934750e-02)
(1.331770e+01 1.094282e-01 -6.943103e-02)
(1.330161e+01 1.100419e-01 -7.133942e-02)
(1.332172e+01 1.078868e-01 -7.003348e-02)
(1.348112e+01 9.978386e-02 -6.851593e-02)
(9.623773e+00 1.447190e-01 -1.200699e-01)
(1.266039e+01 1.321660e-01 -7.101076e-02)
(1.277854e+01 9.677508e-02 -6.168518e-02)
(1.344687e+01 9.898043e-02 -7.320254e-02)
(1.376742e+01 1.036027e-01 -7.862617e-02)
(1.394076e+01 1.021040e-01 -7.605233e-02)
(1.406835e+01 9.957410e-02 -7.155683e-02)
(1.415592e+01 9.587375e-02 -6.967380e-02)
(1.422432e+01 9.258192e-02 -6.656761e-02)
(1.424181e+01 9.259493e-02 -6.529214e-02)
(1.437067e+01 9.445905e-02 -7.018659e-02)
(1.426255e+01 8.945747e-02 -6.867358e-02)
(1.420035e+01 8.520215e-02 -6.846769e-02)
(1.420619e+01 9.279360e-02 -6.687579e-02)
(1.407630e+01 1.015681e-01 -7.526428e-02)
(1.399305e+01 1.031191e-01 -7.964554e-02)
(1.402983e+01 1.004535e-01 -7.912672e-02)
(1.434835e+01 9.792651e-02 -7.128745e-02)
(9.858406e+00 1.393264e-01 -1.210241e-01)
(1.306242e+01 1.249387e-01 -7.187930e-02)
(1.307578e+01 8.952589e-02 -5.051784e-02)
(1.365054e+01 9.279356e-02 -6.346957e-02)
(1.394838e+01 9.688035e-02 -7.368259e-02)
(1.412381e+01 9.600291e-02 -7.711374e-02)
(1.426537e+01 9.349356e-02 -7.625797e-02)
(1.439511e+01 9.097378e-02 -7.294303e-02)
(1.449564e+01 8.867280e-02 -7.173725e-02)
(1.457089e+01 8.479418e-02 -7.234756e-02)
(1.461937e+01 8.125708e-02 -6.905816e-02)
(1.463283e+01 7.719944e-02 -6.817186e-02)
(1.451470e+01 7.612912e-02 -6.888244e-02)
(1.448634e+01 8.913271e-02 -7.204945e-02)
(1.426675e+01 9.426241e-02 -7.767216e-02)
(1.415357e+01 9.493744e-02 -7.170315e-02)
(1.418483e+01 9.228930e-02 -7.274074e-02)
(1.457681e+01 9.259468e-02 -7.722476e-02)
(1.014538e+01 1.250101e-01 -1.128105e-01)
(1.322281e+01 1.123508e-01 -6.922563e-02)
(1.320581e+01 8.085836e-02 -3.528890e-02)
(1.371172e+01 8.376182e-02 -4.786026e-02)
(1.396091e+01 8.563169e-02 -5.823005e-02)
(1.411920e+01 8.358430e-02 -6.330416e-02)
(1.425963e+01 8.185028e-02 -6.681251e-02)
(1.439532e+01 8.069140e-02 -6.972240e-02)
(1.452436e+01 7.969750e-02 -7.309845e-02)
(1.462776e+01 7.914969e-02 -7.493144e-02)
(1.470977e+01 7.819571e-02 -7.530402e-02)
(1.472881e+01 7.602083e-02 -7.438146e-02)
(1.459354e+01 7.389556e-02 -7.469884e-02)
(1.449276e+01 7.929219e-02 -7.256190e-02)
(1.424424e+01 8.163960e-02 -6.352011e-02)
(1.414420e+01 8.409319e-02 -5.663611e-02)
(1.416489e+01 8.149189e-02 -5.852527e-02)
(1.456189e+01 8.064909e-02 -6.911912e-02)
(1.053088e+01 1.084035e-01 -1.087243e-01)
(1.331972e+01 9.888942e-02 -6.190099e-02)
(1.332650e+01 7.187601e-02 -2.157222e-02)
(1.377477e+01 7.473431e-02 -3.389591e-02)
(1.397964e+01 7.612000e-02 -4.239604e-02)
(1.409219e+01 7.372992e-02 -4.868633e-02)
(1.422326e+01 7.153846e-02 -5.331154e-02)
(1.435739e+01 7.014277e-02 -5.734045e-02)
(1.446863e+01 6.988248e-02 -6.161246e-02)
(1.457432e+01 7.001193e-02 -6.575447e-02)
(1.466314e+01 7.047487e-02 -6.878298e-02)
(1.467775e+01 6.985213e-02 -7.131270e-02)
(1.453909e+01 6.654708e-02 -6.912529e-02)
(1.442917e+01 6.940152e-02 -6.088011e-02)
(1.420891e+01 7.225328e-02 -4.989951e-02)
(1.412988e+01 7.418513e-02 -4.269835e-02)
(1.413749e+01 7.201491e-02 -4.513775e-02)
(1.448375e+01 7.078522e-02 -5.620294e-02)
(1.091646e+01 9.340442e-02 -1.089093e-01)
(1.340074e+01 8.691682e-02 -4.690302e-02)
(1.344399e+01 6.311887e-02 -8.273995e-03)
(1.381932e+01 6.639253e-02 -2.070627e-02)
(1.400472e+01 6.724562e-02 -2.933697e-02)
(1.410060e+01 6.434380e-02 -3.473923e-02)
(1.418337e+01 6.212712e-02 -3.980792e-02)
(1.430554e+01 6.237257e-02 -4.515862e-02)
(1.441632e+01 6.349538e-02 -5.005926e-02)
(1.450863e+01 6.472688e-02 -5.446620e-02)
(1.458093e+01 6.601010e-02 -5.907857e-02)
(1.459315e+01 6.582729e-02 -6.226811e-02)
(1.446378e+01 6.252027e-02 -6.040398e-02)
(1.437218e+01 6.249521e-02 -4.900008e-02)
(1.419095e+01 6.278390e-02 -3.664802e-02)
(1.415396e+01 6.580340e-02 -2.938700e-02)
(1.415247e+01 6.368766e-02 -3.169766e-02)
(1.441669e+01 6.312877e-02 -4.386191e-02)
(1.129323e+01 7.911340e-02 -1.087452e-01)
(1.351924e+01 7.710098e-02 -3.248717e-02)
(1.359586e+01 5.918695e-02 -5.886029e-04)
(1.391606e+01 5.934710e-02 -9.817814e-03)
(1.407613e+01 6.011958e-02 -1.667572e-02)
(1.415485e+01 5.855542e-02 -2.229783e-02)
(1.422556e+01 5.742778e-02 -2.712463e-02)
(1.428601e+01 5.729268e-02 -3.135354e-02)
(1.437355e+01 5.913910e-02 -3.656622e-02)
(1.444836e+01 6.120574e-02 -4.126311e-02)
(1.450257e+01 6.263303e-02 -4.511075e-02)
(1.450883e+01 6.299783e-02 -4.867201e-02)
(1.439324e+01 5.942743e-02 -4.726785e-02)
(1.434402e+01 5.822555e-02 -3.587707e-02)
(1.422508e+01 5.787293e-02 -2.468209e-02)
(1.421052e+01 5.985368e-02 -1.772558e-02)
(1.418136e+01 5.819662e-02 -1.960558e-02)
(1.438135e+01 5.840567e-02 -3.037436e-02)
(1.163656e+01 7.054552e-02 -1.087675e-01)
(1.364946e+01 6.887248e-02 -2.284998e-02)
(1.375971e+01 5.615469e-02 3.794162e-03)
(1.407243e+01 5.545518e-02 -4.449475e-03)
(1.421346e+01 5.452214e-02 -9.676925e-03)
(1.424932e+01 5.375479e-02 -1.309693e-02)
(1.427347e+01 5.418449e-02 -1.593495e-02)
(1.430111e+01 5.477758e-02 -1.933661e-02)
(1.433895e+01 5.596370e-02 -2.324215e-02)
(1.439610e+01 5.864153e-02 -2.827083e-02)
(1.444190e+01 6.047406e-02 -3.282229e-02)
(1.444323e+01 6.059699e-02 -3.647335e-02)
(1.433775e+01 5.704569e-02 -3.503424e-02)
(1.431110e+01 5.515534e-02 -2.317095e-02)
(1.428955e+01 5.432195e-02 -1.445655e-02)
(1.432920e+01 5.566959e-02 -1.032050e-02)
(1.427760e+01 5.438802e-02 -1.118005e-02)
(1.433374e+01 5.616521e-02 -1.876060e-02)
(1.191830e+01 6.783456e-02 -1.092584e-01)
(1.375942e+01 6.312399e-02 -1.845983e-02)
(1.390221e+01 5.254691e-02 5.742060e-03)
(1.418946e+01 5.238008e-02 -7.005758e-04)
(1.429747e+01 5.253630e-02 -3.784388e-03)
(1.432235e+01 5.240889e-02 -6.731639e-03)
(1.432726e+01 5.278634e-02 -8.926139e-03)
(1.433186e+01 5.331150e-02 -1.153262e-02)
(1.434349e+01 5.390388e-02 -1.507125e-02)
(1.435662e+01 5.494282e-02 -1.863089e-02)
(1.439292e+01 5.685719e-02 -2.223178e-02)
(1.439313e+01 5.716744e-02 -2.546735e-02)
(1.429380e+01 5.351177e-02 -2.387052e-02)
(1.432847e+01 5.348329e-02 -1.492866e-02)
(1.435671e+01 5.295498e-02 -8.104121e-03)
(1.440568e+01 5.399118e-02 -4.365072e-03)
(1.435289e+01 5.298470e-02 -5.198606e-03)
(1.437294e+01 5.443447e-02 -1.135522e-02)
(1.211454e+01 6.625161e-02 -1.076128e-01)
(1.384673e+01 5.804967e-02 -1.415326e-02)
(1.398356e+01 4.854069e-02 7.764784e-03)
(1.426401e+01 5.142878e-02 1.177549e-03)
(1.433522e+01 5.227832e-02 5.726323e-06)
(1.434220e+01 5.187350e-02 -1.320535e-03)
(1.433969e+01 5.222754e-02 -3.313071e-03)
(1.433927e+01 5.279897e-02 -5.860666e-03)
(1.434588e+01 5.305726e-02 -9.471777e-03)
(1.435865e+01 5.373331e-02 -1.310006e-02)
(1.437230e+01 5.449723e-02 -1.634355e-02)
(1.436647e+01 5.472535e-02 -1.895603e-02)
(1.427312e+01 5.097975e-02 -1.702856e-02)
(1.434095e+01 5.295187e-02 -9.246789e-03)
(1.437573e+01 5.260047e-02 -2.374202e-03)
(1.443963e+01 5.407840e-02 2.924009e-04)
(1.438464e+01 5.297103e-02 -1.041850e-04)
(1.440081e+01 5.407718e-02 -6.323215e-03)
(1.227047e+01 6.718411e-02 -1.038508e-01)
(1.388854e+01 5.491396e-02 -1.021668e-02)
(1.403483e+01 4.667520e-02 1.021485e-02)
(1.430396e+01 5.182963e-02 3.183091e-03)
(1.435413e+01 5.296403e-02 2.663491e-03)
(1.434692e+01 5.180368e-02 2.358797e-03)
(1.434499e+01 5.168890e-02 7.584134e-04)
(1.433733e+01 5.226183e-02 -1.372276e-03)
(1.434513e+01 5.231353e-02 -4.941137e-03)
(1.435637e+01 5.275810e-02 -8.577232e-03)
(1.436515e+01 5.329535e-02 -1.159894e-02)
(1.435206e+01 5.270725e-02 -1.369897e-02)
(1.427556e+01 4.995173e-02 -1.224490e-02)
(1.434180e+01 5.224709e-02 -4.575007e-03)
(1.438740e+01 5.232537e-02 1.727283e-03)
(1.445107e+01 5.516549e-02 3.567896e-03)
(1.439738e+01 5.383875e-02 3.403551e-03)
(1.441709e+01 5.396383e-02 -2.117177e-03)
(1.238723e+01 6.947853e-02 -1.000033e-01)
(1.390791e+01 5.293043e-02 -6.811671e-03)
(1.405177e+01 4.655926e-02 1.442686e-02)
(1.432162e+01 5.227178e-02 5.650233e-03)
(1.437289e+01 5.363397e-02 4.381247e-03)
(1.434985e+01 5.236417e-02 4.749912e-03)
(1.434301e+01 5.120682e-02 4.046623e-03)
(1.434096e+01 5.175086e-02 1.640180e-03)
(1.434596e+01 5.214579e-02 -1.428915e-03)
(1.435489e+01 5.219992e-02 -4.835716e-03)
(1.435863e+01 5.238147e-02 -7.425152e-03)
(1.434011e+01 5.168117e-02 -9.604852e-03)
(1.426670e+01 4.896925e-02 -7.970801e-03)
(1.434211e+01 5.206708e-02 -9.539025e-04)
(1.439092e+01 5.274461e-02 4.631521e-03)
(1.447215e+01 5.605006e-02 5.263179e-03)
(1.441194e+01 5.498579e-02 5.467941e-03)
(1.442182e+01 5.407169e-02 1.894756e-03)
(1.248447e+01 7.230933e-02 -9.876522e-02)
(1.393415e+01 5.218005e-02 -3.160642e-03)
(1.406361e+01 4.745334e-02 1.864439e-02)
(1.431319e+01 5.383184e-02 9.381147e-03)
(1.438082e+01 5.477470e-02 6.563658e-03)
(1.436462e+01 5.323789e-02 6.067321e-03)
(1.434277e+01 5.171916e-02 6.040910e-03)
(1.434300e+01 5.119596e-02 4.541931e-03)
(1.434098e+01 5.190691e-02 1.600942e-03)
(1.435267e+01 5.215705e-02 -1.556030e-03)
(1.435823e+01 5.221158e-02 -4.199030e-03)
(1.433633e+01 5.120036e-02 -5.984061e-03)
(1.425642e+01 4.858093e-02 -4.543639e-03)
(1.434432e+01 5.142781e-02 1.959718e-03)
(1.439976e+01 5.389350e-02 6.339573e-03)
(1.448972e+01 5.786371e-02 7.556023e-03)
(1.443252e+01 5.675559e-02 7.400498e-03)
(1.442357e+01 5.436550e-02 5.628875e-03)
(1.254272e+01 7.522927e-02 -9.714765e-02)
(1.394593e+01 5.246670e-02 1.162279e-03)
(1.405498e+01 4.928359e-02 2.321782e-02)
(1.430412e+01 5.601290e-02 1.299271e-02)
(1.438731e+01 5.611902e-02 8.851264e-03)
(1.437225e+01 5.436407e-02 7.630598e-03)
(1.435407e+01 5.264027e-02 7.102770e-03)
(1.434580e+01 5.122656e-02 6.453328e-03)
(1.434013e+01 5.143571e-02 4.626852e-03)
(1.433524e+01 5.222608e-02 1.914065e-03)
(1.434260e+01 5.207073e-02 -7.457343e-04)
(1.431962e+01 5.080140e-02 -2.885104e-03)
(1.424068e+01 4.826064e-02 -1.549176e-03)
(1.434405e+01 5.099915e-02 4.846255e-03)
(1.441266e+01 5.517068e-02 7.693017e-03)
(1.449494e+01 5.960561e-02 9.970486e-03)
(1.443648e+01 5.827158e-02 9.837258e-03)
(1.442237e+01 5.539330e-02 8.504623e-03)
(1.259391e+01 7.515394e-02 -9.199654e-02)
(1.396109e+01 5.279044e-02 5.290283e-03)
(1.405405e+01 5.093358e-02 2.783987e-02)
(1.429499e+01 5.849341e-02 1.671849e-02)
(1.437282e+01 5.797415e-02 1.192775e-02)
(1.437398e+01 5.559966e-02 9.731422e-03)
(1.435992e+01 5.334157e-02 8.152073e-03)
(1.434763e+01 5.162553e-02 7.091363e-03)
(1.433388e+01 5.061673e-02 6.261304e-03)
(1.432597e+01 5.085354e-02 4.317020e-03)
(1.431487e+01 5.140699e-02 2.160027e-03)
(1.428684e+01 5.033206e-02 5.618735e-04)
(1.421237e+01 4.762190e-02 1.207202e-03)
(1.433380e+01 5.088316e-02 6.502404e-03)
(1.441357e+01 5.651081e-02 1.015073e-02)
(1.448020e+01 6.162664e-02 1.311575e-02)
(1.442668e+01 6.038023e-02 1.279626e-02)
(1.441908e+01 5.641237e-02 1.088025e-02)
(1.264181e+01 7.475688e-02 -8.462639e-02)
(1.398666e+01 5.308994e-02 1.017501e-02)
(1.405850e+01 5.324526e-02 3.191403e-02)
(1.429051e+01 6.072756e-02 2.000396e-02)
(1.436765e+01 6.006428e-02 1.494883e-02)
(1.436047e+01 5.743102e-02 1.250149e-02)
(1.435599e+01 5.481451e-02 1.049353e-02)
(1.433798e+01 5.254064e-02 9.004358e-03)
(1.431555e+01 5.067143e-02 7.524404e-03)
(1.429762e+01 4.997669e-02 6.851767e-03)
(1.427945e+01 4.980954e-02 5.271019e-03)
(1.424318e+01 4.892362e-02 3.471351e-03)
(1.417486e+01 4.633116e-02 4.077001e-03)
(1.432040e+01 5.142266e-02 8.331578e-03)
(1.440291e+01 5.846005e-02 1.270679e-02)
(1.447162e+01 6.379399e-02 1.620435e-02)
(1.441489e+01 6.237160e-02 1.586190e-02)
(1.440276e+01 5.791222e-02 1.385296e-02)
(1.257884e+01 7.600490e-02 -8.750011e-02)
(1.404505e+01 5.515204e-02 1.220286e-02)
(1.408055e+01 5.523473e-02 3.485768e-02)
(1.430707e+01 6.272430e-02 2.350404e-02)
(1.438115e+01 6.222153e-02 1.801633e-02)
(1.437470e+01 5.989836e-02 1.527779e-02)
(1.435712e+01 5.732094e-02 1.285992e-02)
(1.433485e+01 5.484804e-02 1.095840e-02)
(1.431039e+01 5.268646e-02 9.803036e-03)
(1.428971e+01 5.074576e-02 9.138333e-03)
(1.426279e+01 4.910486e-02 8.087878e-03)
(1.421510e+01 4.750912e-02 6.783509e-03)
(1.415079e+01 4.577944e-02 6.905728e-03)
(1.430950e+01 5.329071e-02 1.050576e-02)
(1.440001e+01 6.066693e-02 1.551995e-02)
(1.446751e+01 6.538164e-02 1.876350e-02)
(1.441148e+01 6.408229e-02 1.824118e-02)
(1.440729e+01 5.985902e-02 1.619233e-02)
(1.198284e+01 7.485432e-02 -4.938262e-02)
(1.391044e+01 5.614648e-02 7.790629e-03)
(1.414741e+01 5.981607e-02 3.236194e-02)
(1.437806e+01 6.491441e-02 2.505516e-02)
(1.445163e+01 6.447030e-02 2.017993e-02)
(1.444272e+01 6.205828e-02 1.771568e-02)
(1.442327e+01 5.947896e-02 1.547638e-02)
(1.439826e+01 5.690978e-02 1.362444e-02)
(1.437059e+01 5.463200e-02 1.245341e-02)
(1.434907e+01 5.269639e-02 1.168594e-02)
(1.431849e+01 5.099832e-02 1.079190e-02)
(1.427030e+01 4.908994e-02 9.466711e-03)
(1.419853e+01 4.771145e-02 9.450328e-03)
(1.435860e+01 5.526119e-02 1.365752e-02)
(1.444902e+01 6.256742e-02 1.754972e-02)
(1.451720e+01 6.699631e-02 2.045614e-02)
(1.447520e+01 6.567217e-02 1.938343e-02)
(1.447681e+01 6.177669e-02 1.885736e-02)
(1.058491e+01 -1.671239e-02 -1.291013e-01)
(1.345314e+01 3.702012e-02 7.900004e-03)
(1.408930e+01 5.773043e-02 1.669802e-02)
(1.444722e+01 6.478005e-02 1.985149e-02)
(1.450268e+01 6.306420e-02 1.729941e-02)
(1.448691e+01 6.063447e-02 1.492626e-02)
(1.446516e+01 5.811697e-02 1.278691e-02)
(1.444377e+01 5.586127e-02 1.116296e-02)
(1.442233e+01 5.393286e-02 1.018925e-02)
(1.440349e+01 5.257985e-02 9.589691e-03)
(1.438206e+01 5.158795e-02 8.526248e-03)
(1.433119e+01 5.050216e-02 6.710918e-03)
(1.425277e+01 4.818785e-02 7.347478e-03)
(1.440671e+01 5.468500e-02 1.134444e-02)
(1.449546e+01 6.167329e-02 1.578049e-02)
(1.457299e+01 6.589830e-02 1.752633e-02)
(1.453564e+01 6.436468e-02 1.767464e-02)
(1.445071e+01 5.717544e-02 1.215350e-02)
(7.333916e+00 3.923219e-03 -9.387822e-02)
(1.176556e+01 1.700560e-03 -3.402414e-02)
(1.345159e+01 3.820794e-02 6.418719e-03)
(1.416201e+01 5.306825e-02 7.216885e-03)
(1.427079e+01 5.205726e-02 6.668184e-03)
(1.425702e+01 5.028687e-02 5.922357e-03)
(1.423223e+01 4.882936e-02 5.865116e-03)
(1.422373e+01 4.747205e-02 4.758316e-03)
(1.421088e+01 4.755445e-02 2.910399e-03)
(1.420487e+01 4.807165e-02 2.926939e-04)
(1.420172e+01 4.830695e-02 -1.822855e-03)
(1.417025e+01 4.720308e-02 -3.457289e-03)
(1.408339e+01 4.478484e-02 -1.787080e-03)
(1.423059e+01 4.772985e-02 4.324638e-03)
(1.430712e+01 5.236177e-02 7.215527e-03)
(1.437184e+01 5.561591e-02 9.000411e-03)
(1.426451e+01 5.115888e-02 4.615548e-03)
(1.413971e+01 4.735831e-02 4.592756e-04)
(7.189696e+00 -4.126946e-02 -1.748497e-01)
(1.150486e+01 1.681467e-02 -7.041431e-02)
(1.331910e+01 2.825515e-02 -5.083811e-03)
(1.420314e+01 5.153946e-02 2.591223e-03)
(1.432201e+01 5.190042e-02 4.406078e-03)
(1.429991e+01 5.023853e-02 4.920241e-03)
(1.428768e+01 4.899739e-02 4.460149e-03)
(1.428271e+01 4.942229e-02 2.330409e-03)
(1.428201e+01 5.004810e-02 -8.465137e-04)
(1.429363e+01 5.027686e-02 -3.589128e-03)
(1.429738e+01 5.037664e-02 -6.074090e-03)
(1.426154e+01 4.917189e-02 -7.842539e-03)
(1.418140e+01 4.677083e-02 -5.455901e-03)
(1.430699e+01 5.002816e-02 2.163830e-03)
(1.437589e+01 5.281269e-02 6.530177e-03)
(1.444380e+01 5.536013e-02 6.128958e-03)
(1.435812e+01 5.148608e-02 3.764563e-03)
(1.416984e+01 4.802097e-02 -6.177224e-03)
(7.003376e+00 -1.695317e-02 -1.943429e-01)
(1.142155e+01 1.985214e-02 -7.948676e-02)
(1.336151e+01 2.848059e-02 -7.249621e-03)
(1.424958e+01 5.337429e-02 3.805688e-03)
(1.437309e+01 5.380225e-02 5.308022e-03)
(1.435128e+01 5.212603e-02 5.963055e-03)
(1.433855e+01 5.082931e-02 5.423740e-03)
(1.433975e+01 5.117196e-02 3.143983e-03)
(1.434102e+01 5.180091e-02 4.954629e-05)
(1.435571e+01 5.197133e-02 -2.869148e-03)
(1.435985e+01 5.203885e-02 -5.435876e-03)
(1.432447e+01 5.099288e-02 -7.178688e-03)
(1.424355e+01 4.826701e-02 -4.792608e-03)
(1.436904e+01 5.172187e-02 2.898948e-03)
(1.443174e+01 5.458133e-02 7.302934e-03)
(1.450513e+01 5.710890e-02 6.944547e-03)
(1.442229e+01 5.326504e-02 4.484909e-03)
(1.425895e+01 5.023611e-02 -5.604833e-03)
(7.074251e+00 -5.143226e-03 -2.014006e-01)
(1.152732e+01 2.145383e-02 -8.100115e-02)
(1.341769e+01 2.980166e-02 -6.045115e-03)
(1.426221e+01 5.493687e-02 5.817475e-03)
(1.438351e+01 5.499102e-02 6.862837e-03)
(1.436668e+01 5.325817e-02 6.861600e-03)
(1.435024e+01 5.171020e-02 6.592481e-03)
(1.435071e+01 5.137610e-02 4.798072e-03)
(1.434621e+01 5.206437e-02 1.821213e-03)
(1.435839e+01 5.237980e-02 -9.386188e-04)
(1.436248e+01 5.228015e-02 -3.649403e-03)
(1.433135e+01 5.112476e-02 -5.378938e-03)
(1.424683e+01 4.842928e-02 -3.250830e-03)
(1.437813e+01 5.185613e-02 4.528975e-03)
(1.444923e+01 5.546791e-02 7.746603e-03)
(1.451808e+01 5.819623e-02 8.161673e-03)
(1.443419e+01 5.426604e-02 5.760257e-03)
(1.427948e+01 5.071758e-02 -3.542264e-03)
(7.160995e+00 -2.828477e-03 -2.010313e-01)
(1.163233e+01 2.389626e-02 -8.048290e-02)
(1.347552e+01 3.112842e-02 -4.477725e-03)
(1.426443e+01 5.614288e-02 7.612971e-03)
(1.437884e+01 5.559327e-02 8.203116e-03)
(1.436187e+01 5.370881e-02 7.648161e-03)
(1.434810e+01 5.209182e-02 7.190177e-03)
(1.434544e+01 5.092379e-02 6.055572e-03)
(1.433861e+01 5.157688e-02 3.766440e-03)
(1.434226e+01 5.220539e-02 1.174484e-03)
(1.434940e+01 5.195242e-02 -1.628562e-03)
(1.431696e+01 5.067487e-02 -3.489644e-03)
(1.423264e+01 4.803224e-02 -1.434855e-03)
(1.437471e+01 5.144245e-02 5.545422e-03)
(1.444928e+01 5.601737e-02 8.662128e-03)
(1.451675e+01 5.888621e-02 9.292842e-03)
(1.443498e+01 5.510250e-02 6.849217e-03)
(1.427443e+01 5.091654e-02 -8.442487e-04)
(7.212869e+00 -7.717687e-03 -2.023752e-01)
(1.157276e+01 2.414564e-02 -7.914194e-02)
(1.342870e+01 3.088124e-02 -2.084781e-03)
(1.417421e+01 5.484873e-02 1.053191e-02)
(1.428308e+01 5.430735e-02 1.183528e-02)
(1.427750e+01 5.222915e-02 1.087231e-02)
(1.427377e+01 5.053898e-02 9.275730e-03)
(1.427742e+01 4.927977e-02 7.666261e-03)
(1.428262e+01 4.883683e-02 6.088126e-03)
(1.429286e+01 4.940882e-02 3.635132e-03)
(1.429705e+01 4.967738e-02 7.402509e-04)
(1.426399e+01 4.854315e-02 -8.921376e-04)
(1.418326e+01 4.605984e-02 5.402840e-04)
(1.433331e+01 5.038145e-02 7.585947e-03)
(1.438764e+01 5.535479e-02 1.157377e-02)
(1.444680e+01 5.856984e-02 1.233889e-02)
(1.438591e+01 5.417505e-02 8.435908e-03)
(1.422622e+01 4.880854e-02 1.584181e-03)
(7.239501e+00 -3.487839e-02 -1.655257e-01)
(1.137069e+01 2.732189e-02 -7.492153e-02)
(1.309417e+01 2.880445e-02 7.918453e-04)
(1.391480e+01 4.682485e-02 1.647953e-02)
(1.403949e+01 4.731227e-02 2.010821e-02)
(1.402287e+01 4.607801e-02 1.936400e-02)
(1.402270e+01 4.548357e-02 1.847479e-02)
(1.403959e+01 4.518988e-02 1.690434e-02)
(1.406896e+01 4.499191e-02 1.420305e-02)
(1.409272e+01 4.515527e-02 1.060712e-02)
(1.411196e+01 4.571678e-02 5.944332e-03)
(1.409883e+01 4.547244e-02 2.256886e-03)
(1.400472e+01 4.296328e-02 4.709130e-03)
(1.418579e+01 4.934660e-02 1.376559e-02)
(1.425008e+01 5.225002e-02 1.786828e-02)
(1.434456e+01 5.627690e-02 1.883919e-02)
(1.423459e+01 5.128249e-02 1.198771e-02)
(1.409367e+01 4.705096e-02 4.954438e-03)
(6.513825e+00 -1.403569e-01 -9.757558e-02)
(1.066864e+01 1.811332e-02 -4.100004e-02)
(1.271772e+01 2.942113e-02 1.857811e-03)
(1.371380e+01 4.671878e-02 -5.381141e-05)
(1.396202e+01 4.571192e-02 1.372195e-03)
(1.394660e+01 4.542865e-02 1.226626e-03)
(1.393859e+01 4.609092e-02 -8.474519e-04)
(1.397212e+01 4.667022e-02 -4.605939e-03)
(1.403591e+01 4.836722e-02 -1.108706e-02)
(1.405458e+01 5.514721e-02 -2.897037e-02)
(1.408061e+01 6.078716e-02 -3.789153e-02)
(1.404095e+01 6.229210e-02 -3.844894e-02)
(1.401709e+01 6.203939e-02 -3.833808e-02)
(1.408195e+01 6.421347e-02 -3.678068e-02)
(1.409327e+01 6.438447e-02 -2.716549e-02)
(1.414027e+01 6.671080e-02 -2.710145e-02)
(1.403920e+01 6.723706e-02 -3.252532e-02)
(1.394291e+01 6.590533e-02 -4.539337e-02)
(5.169967e+00 7.990480e-02 -3.456136e-01)
(6.711442e+00 -7.940383e-02 -7.296667e-02)
(1.024185e+01 5.654692e-02 -6.087860e-02)
(1.179186e+01 6.407782e-02 -1.004237e-01)
(1.179293e+01 6.652756e-02 -9.179360e-02)
(1.162029e+01 6.489956e-02 -8.865307e-02)
(1.136700e+01 6.742000e-02 -9.012760e-02)
(1.108454e+01 7.130943e-02 -9.161136e-02)
(1.062388e+01 7.431765e-02 -9.118909e-02)
(9.886496e+00 7.003889e-02 -1.022963e-01)
(9.420496e+00 7.513954e-02 -1.241401e-01)
(9.208774e+00 8.297390e-02 -1.395090e-01)
(9.215597e+00 8.348194e-02 -1.405244e-01)
(9.303072e+00 8.238191e-02 -1.321432e-01)
(9.406698e+00 7.626704e-02 -1.219300e-01)
(9.323635e+00 7.465830e-02 -1.171799e-01)
(9.221570e+00 7.970819e-02 -1.296424e-01)
(8.955643e+00 8.131274e-02 -1.397749e-01)
(-3.226706e+00 5.769150e-01 -4.653376e-01)
(-4.242817e+00 4.508523e-01 -1.948558e-03)
(-3.329429e+00 4.442949e-01 7.019525e-02)
(-4.071214e+00 4.761849e-01 8.009563e-02)
(-4.116856e+00 4.757795e-01 7.519489e-02)
(-4.116442e+00 4.741425e-01 7.506296e-02)
(-4.122334e+00 4.725068e-01 7.529743e-02)
(-4.143901e+00 4.717177e-01 7.571030e-02)
(-4.175444e+00 4.716156e-01 7.616324e-02)
(-4.212204e+00 4.716268e-01 7.697558e-02)
(-4.254284e+00 4.718838e-01 7.893985e-02)
(-4.293986e+00 4.722346e-01 8.067407e-02)
(-4.336044e+00 4.726742e-01 8.230315e-02)
(-4.381125e+00 4.733366e-01 8.398130e-02)
(-4.428227e+00 4.741311e-01 8.564377e-02)
(-4.473526e+00 4.749959e-01 8.767243e-02)
(-4.516986e+00 4.757804e-01 8.992514e-02)
(-4.556393e+00 4.764862e-01 9.171951e-02)
(-4.597596e+00 4.771912e-01 9.347917e-02)
(-4.642711e+00 4.782901e-01 9.566403e-02)
(-4.696041e+00 4.803872e-01 9.806985e-02)
(-4.749159e+00 4.825787e-01 9.970831e-02)
(-4.807389e+00 4.851306e-01 1.017290e-01)
(-4.866971e+00 4.881614e-01 1.037297e-01)
(-4.928031e+00 4.912603e-01 1.050621e-01)
(-4.991760e+00 4.935121e-01 1.070130e-01)
(-5.056617e+00 4.955651e-01 1.090805e-01)
(-5.123984e+00 4.977375e-01 1.111484e-01)
(-5.200429e+00 5.002428e-01 1.131723e-01)
(-5.278462e+00 5.027937e-01 1.149076e-01)
(-5.363465e+00 5.059291e-01 1.159555e-01)
(-5.457537e+00 5.095854e-01 1.167508e-01)
(-5.552537e+00 5.136464e-01 1.170223e-01)
(-5.652454e+00 5.178243e-01 1.179179e-01)
(-5.753585e+00 5.217377e-01 1.186340e-01)
(-5.861822e+00 5.253415e-01 1.189336e-01)
(-5.982124e+00 5.284728e-01 1.185537e-01)
(-6.109092e+00 5.312129e-01 1.183377e-01)
(-6.234355e+00 5.336237e-01 1.175574e-01)
(-6.352798e+00 5.354981e-01 1.166299e-01)
(-6.464678e+00 5.363722e-01 1.152615e-01)
(-6.570689e+00 5.369915e-01 1.132445e-01)
(-6.673505e+00 5.364533e-01 1.088760e-01)
(-6.777891e+00 5.355412e-01 1.040689e-01)
(-6.880161e+00 5.346387e-01 1.001882e-01)
(-6.993285e+00 5.341020e-01 9.577124e-02)
(-7.099312e+00 5.327278e-01 9.097276e-02)
(-7.181995e+00 5.308193e-01 8.647562e-02)
(-7.269462e+00 5.277998e-01 8.186390e-02)
(-7.351958e+00 5.244094e-01 7.673135e-02)
(-7.423008e+00 5.205478e-01 7.027378e-02)
(-7.473361e+00 5.158291e-01 6.423093e-02)
(-7.507404e+00 5.102447e-01 5.738763e-02)
(-7.521624e+00 5.036608e-01 4.883754e-02)
(-7.520994e+00 4.963161e-01 3.845650e-02)
(-7.507511e+00 4.884790e-01 2.723860e-02)
(-7.486695e+00 4.806756e-01 1.568215e-02)
(-7.466516e+00 4.731333e-01 3.754151e-03)
(-7.440376e+00 4.658397e-01 -9.313086e-03)
(-7.417300e+00 4.593313e-01 -2.169561e-02)
(-7.406996e+00 4.543914e-01 -3.399174e-02)
(-7.399772e+00 4.495053e-01 -4.653411e-02)
(-7.370574e+00 4.435206e-01 -5.543235e-02)
(-7.332995e+00 4.361894e-01 -6.259818e-02)
(-7.266938e+00 4.273865e-01 -7.046955e-02)
(-7.196370e+00 4.169132e-01 -7.695281e-02)
(-7.121953e+00 4.051828e-01 -8.533864e-02)
(-7.041974e+00 3.925674e-01 -9.322789e-02)
(-6.953436e+00 3.791208e-01 -1.030021e-01)
(-6.880237e+00 3.656605e-01 -1.139325e-01)
(-6.838508e+00 3.505373e-01 -1.261586e-01)
(-6.782628e+00 3.347611e-01 -1.340827e-01)
(-6.704235e+00 3.181576e-01 -1.410768e-01)
(-6.604042e+00 3.021797e-01 -1.508835e-01)
(-6.455171e+00 2.898553e-01 -1.659534e-01)
(-6.293827e+00 2.800984e-01 -1.819961e-01)
(-6.128427e+00 2.697028e-01 -1.918631e-01)
(-5.931012e+00 2.568713e-01 -1.980928e-01)
(-5.672635e+00 2.454751e-01 -2.083495e-01)
(-5.427771e+00 2.374450e-01 -2.209047e-01)
(-5.224011e+00 2.322940e-01 -2.307073e-01)
(-5.038958e+00 2.278716e-01 -2.380584e-01)
(-4.870566e+00 2.248426e-01 -2.461439e-01)
(-4.726729e+00 2.227572e-01 -2.537818e-01)
(-4.615513e+00 2.219902e-01 -2.588546e-01)
(-4.500388e+00 2.218366e-01 -2.613328e-01)
(-4.393876e+00 2.215464e-01 -2.622148e-01)
(-4.287598e+00 2.221660e-01 -2.636234e-01)
(-4.179630e+00 2.230632e-01 -2.646651e-01)
(-4.079063e+00 2.238044e-01 -2.658651e-01)
(-3.964400e+00 2.245697e-01 -2.677889e-01)
(-3.808548e+00 2.249220e-01 -2.677534e-01)
(-3.656661e+00 2.249103e-01 -2.633758e-01)
(-3.522668e+00 2.243269e-01 -2.584186e-01)
(-3.376947e+00 2.238627e-01 -2.530211e-01)
(-3.208970e+00 2.231830e-01 -2.473494e-01)
(-3.056546e+00 2.231486e-01 -2.438561e-01)
(-2.953415e+00 2.252434e-01 -2.450492e-01)
(-2.871073e+00 2.265804e-01 -2.458563e-01)
(-2.792791e+00 2.297208e-01 -2.477152e-01)
(-2.717798e+00 2.339958e-01 -2.505650e-01)
(-2.649539e+00 2.393046e-01 -2.529468e-01)
(-2.581708e+00 2.449698e-01 -2.538971e-01)
(-2.511654e+00 2.507174e-01 -2.544970e-01)
(-2.453033e+00 2.573206e-01 -2.554799e-01)
(-2.391838e+00 2.649426e-01 -2.576006e-01)
(-2.331567e+00 2.729003e-01 -2.597549e-01)
(-2.292564e+00 2.820680e-01 -2.620806e-01)
(-2.259722e+00 2.918713e-01 -2.643831e-01)
(-2.220448e+00 3.018021e-01 -2.667833e-01)
(-2.175838e+00 3.122418e-01 -2.702779e-01)
(-2.140553e+00 3.229707e-01 -2.744360e-01)
(-2.112683e+00 3.339147e-01 -2.779310e-01)
(-2.101246e+00 3.465971e-01 -2.814936e-01)
(-2.083918e+00 3.596093e-01 -2.851608e-01)
(-2.066383e+00 3.729010e-01 -2.892517e-01)
(-2.050411e+00 3.867143e-01 -2.938012e-01)
(-2.024159e+00 4.013775e-01 -2.999966e-01)
(-1.988541e+00 4.171111e-01 -3.081145e-01)
(-1.948707e+00 4.337149e-01 -3.156864e-01)
(-1.896966e+00 4.507384e-01 -3.230790e-01)
(-1.857668e+00 4.665513e-01 -3.297547e-01)
(-1.825017e+00 4.820968e-01 -3.358159e-01)
(-1.791505e+00 4.972606e-01 -3.404382e-01)
(-1.761597e+00 5.119490e-01 -3.442911e-01)
(-1.734386e+00 5.253084e-01 -3.469535e-01)
(-1.704293e+00 5.379460e-01 -3.484415e-01)
(-1.657415e+00 5.508142e-01 -3.498302e-01)
(-1.604553e+00 5.634748e-01 -3.517977e-01)
(-1.543704e+00 5.763040e-01 -3.541937e-01)
(-1.474579e+00 5.886293e-01 -3.571951e-01)
(-1.406279e+00 6.007402e-01 -3.592547e-01)
(-1.352003e+00 6.124163e-01 -3.604524e-01)
(-1.295921e+00 6.235075e-01 -3.613780e-01)
(-1.238648e+00 6.338067e-01 -3.621142e-01)
(-1.179404e+00 6.437853e-01 -3.627318e-01)
(-1.118228e+00 6.532165e-01 -3.627890e-01)
(-1.051147e+00 6.614055e-01 -3.628522e-01)
(-9.771808e-01 6.694516e-01 -3.618993e-01)
(-9.121880e-01 6.774914e-01 -3.614858e-01)
(-8.493055e-01 6.861511e-01 -3.619116e-01)
(-7.992046e-01 6.945880e-01 -3.625799e-01)
(-7.531416e-01 7.025544e-01 -3.629090e-01)
(-7.008432e-01 7.108668e-01 -3.632334e-01)
(-6.493161e-01 7.195325e-01 -3.639386e-01)
(-5.991145e-01 7.282835e-01 -3.648199e-01)
(-5.534673e-01 7.371786e-01 -3.662563e-01)
(-5.176470e-01 7.460051e-01 -3.668015e-01)
(-4.869233e-01 7.544633e-01 -3.666171e-01)
(-4.581592e-01 7.628411e-01 -3.667664e-01)
(-4.324012e-01 7.713287e-01 -3.671516e-01)
(-4.124526e-01 7.800936e-01 -3.679654e-01)
(-3.985274e-01 7.891063e-01 -3.674555e-01)
(-3.854454e-01 7.984057e-01 -3.673381e-01)
(-3.716933e-01 8.076841e-01 -3.670639e-01)
(-3.608564e-01 8.166867e-01 -3.678781e-01)