/*--------------------------------*- C++ -*----------------------------------*\
| =========                 |                                                 |
| \\      /  F ield         | OpenFOAM: The Open Source CFD Toolbox           |
|  \\    /   O peration     | Version:  v2406                                 |
|   \\  /    A nd           | Website:  www.openfoam.com                      |
|    \\/     M anipulation  |                                                 |
\*---------------------------------------------------------------------------*/
FoamFile
{
    version     2.0;
    format      ascii;
    class       volScalarField;
    location    "predicted";
    object      epsilon;
}
// * * * * * * * * * * * * * * * * * * * * * * * * * * * * * * * * * * * * * //

dimensions      [0 2 -3 0 0 0 0];

internalField   nonuniform List<scalar>
49181
(
3.105934e+03
2.079797e+03
1.845580e+03
2.172885e+03
2.256072e+03
2.270723e+03
2.278866e+03
2.278967e+03
2.259332e+03
2.216875e+03
2.186292e+03
2.178421e+03
2.183745e+03
2.190029e+03
2.185371e+03
2.172826e+03
2.289262e+03
2.246406e+03
2.070552e+03
9.535072e+02
9.111090e+02
1.090417e+03
1.134961e+03
1.158640e+03
1.181277e+03
1.211609e+03
1.245153e+03
1.276434e+03
1.295505e+03
1.308161e+03
1.298670e+03
1.271533e+03
1.229195e+03
1.183849e+03
1.205663e+03
1.356822e+03
1.801262e+03
8.191941e+02
5.392087e+02
5.625290e+02
5.984501e+02
6.183706e+02
6.377395e+02
6.627200e+02
7.025466e+02
7.481937e+02
7.836622e+02
7.924424e+02
7.785712e+02
7.367926e+02
6.778760e+02
6.289923e+02
6.222596e+02
6.958873e+02
2.091264e+03
8.653113e+02
4.001616e+02
3.959575e+02
4.118587e+02
4.253312e+02
4.394842e+02
4.549311e+02
4.753714e+02
5.040955e+02
5.235776e+02
5.275885e+02
5.146513e+02
4.808713e+02
4.312494e+02
3.890211e+02
3.871646e+02
4.344001e+02
2.138178e+03
7.770890e+02
2.870386e+02
2.490990e+02
2.551600e+02
2.623987e+02
2.707633e+02
2.800909e+02
2.916637e+02
3.049899e+02
3.173348e+02
3.193474e+02
3.129104e+02
2.890362e+02
2.547145e+02
2.268931e+02
2.259113e+02
2.583127e+02
2.111862e+03
6.690776e+02
1.859634e+02
1.434320e+02
1.429024e+02
1.455714e+02
1.490963e+02
1.530332e+02
1.570514e+02
1.615358e+02
1.654499e+02
1.676699e+02
1.661449e+02
1.566056e+02
1.393767e+02
1.245764e+02
1.235815e+02
1.386734e+02
2.069841e+03
5.580707e+02
1.094850e+02
7.428791e+01
7.157783e+01
7.309301e+01
7.514668e+01
7.719747e+01
7.919921e+01
8.110805e+01
8.267713e+01
8.389161e+01
8.449413e+01
7.961654e+01
6.923775e+01
5.880791e+01
5.831879e+01
6.801755e+01
2.020587e+03
4.457493e+02
6.461854e+01
3.305437e+01
2.901641e+01
2.953354e+01
3.033054e+01
3.108421e+01
3.190479e+01
3.263699e+01
3.319193e+01
3.393755e+01
3.497129e+01
3.246792e+01
2.760852e+01
2.215721e+01
2.203732e+01
2.584639e+01
1.964851e+03
3.447555e+02
3.731616e+01
8.292255e+00
4.300023e+00
4.432084e+00
4.763765e+00
5.060375e+00
5.317755e+00
5.766649e+00
6.190330e+00
6.888467e+00
7.919800e+00
6.029137e+00
3.418272e+00
3.182124e-02
1.180304e-01
1.943658e+00
1.907722e+03
2.671303e+02
1.815776e+01
-6.603170e+00
-1.045856e+01
-1.040802e+01
-1.002128e+01
-9.649743e+00
-9.247681e+00
-8.856042e+00
-8.400407e+00
-7.723503e+00
-6.899779e+00
-8.546099e+00
-1.067686e+01
-1.348491e+01
-1.306432e+01
-1.145206e+01
1.853511e+03
2.069124e+02
7.228226e+00
-1.588864e+01
-1.955213e+01
-1.936201e+01
-1.893177e+01
-1.845535e+01
-1.807425e+01
-1.771786e+01
-1.731408e+01
-1.674387e+01
-1.603386e+01
-1.738520e+01
-1.917145e+01
-2.147504e+01
-2.094006e+01
-1.990225e+01
1.804912e+03
1.630870e+02
-1.052253e+00
-2.088043e+01
-2.340036e+01
-2.307810e+01
-2.268955e+01
-2.230753e+01
-2.192985e+01
-2.157970e+01
-2.129814e+01
-2.094885e+01
-2.028721e+01
-2.145806e+01
-2.280804e+01
-2.482031e+01
-2.435428e+01
-2.363645e+01
1.762078e+03
1.324686e+02
-6.073650e+00
-2.413185e+01
-2.624859e+01
-2.568587e+01
-2.516796e+01
-2.473178e+01
-2.434317e+01
-2.399890e+01
-2.375761e+01
-2.345613e+01
-2.281196e+01
-2.393472e+01
-2.540061e+01
-2.773345e+01
-2.723265e+01
-2.620242e+01
1.717890e+03
1.115051e+02
-9.984721e+00
-2.684395e+01
-2.901350e+01
-2.849559e+01
-2.800342e+01
-2.752786e+01
-2.703107e+01
-2.656409e+01
-2.618807e+01
-2.582019e+01
-2.529614e+01
-2.670031e+01
-2.837291e+01
-3.060502e+01
-3.020685e+01
-2.919034e+01
1.670241e+03
9.884835e+01
-1.271449e+01
-2.859421e+01
-3.077884e+01
-3.063196e+01
-3.034818e+01
-3.007268e+01
-2.968969e+01
-2.924409e+01
-2.884301e+01
-2.846182e+01
-2.798873e+01
-2.939326e+01
-3.069967e+01
-3.262418e+01
-3.228107e+01
-3.174243e+01
1.616358e+03
8.821991e+01
-1.516289e+01
-2.978492e+01
-3.213285e+01
-3.204777e+01
-3.198339e+01
-3.180367e+01
-3.162825e+01
-3.142860e+01
-3.117077e+01
-3.083538e+01
-3.032053e+01
-3.130753e+01
-3.233883e+01
-3.415335e+01
-3.384682e+01
-3.356794e+01
1.558334e+03
8.264336e+01
-1.789215e+01
-3.122301e+01
-3.321491e+01
-3.335496e+01
-3.330807e+01
-3.309413e+01
-3.293169e+01
-3.273252e+01
-3.254573e+01
-3.224832e+01
-3.172720e+01
-3.278357e+01
-3.328654e+01
-3.407418e+01
-3.370443e+01
-3.447500e+01
1.498527e+03
7.917020e+01
-1.966729e+01
-3.008308e+01
-3.168616e+01
-3.201686e+01
-3.218655e+01
-3.233132e+01
-3.240719e+01
-3.239107e+01
-3.230076e+01
-3.209440e+01
-3.157670e+01
-3.195144e+01
-3.152755e+01
-3.208495e+01
-3.170493e+01
-3.291013e+01
1.460262e+03
7.653750e+01
-1.991407e+01
-2.916908e+01
-3.039243e+01
-3.063802e+01
-3.082671e+01
-3.099037e+01
-3.113558e+01
-3.123358e+01
-3.123041e+01
-3.101665e+01
-3.042206e+01
-3.046489e+01
-3.011120e+01
-3.104845e+01
-3.078807e+01
-3.174938e+01
1.492033e+03
7.633450e+01
-2.299174e+01
-3.109321e+01
-3.261305e+01
-3.276046e+01
-3.274823e+01
-3.274823e+01
-3.282568e+01
-3.290425e+01
-3.288293e+01
-3.266805e+01
-3.198013e+01
-3.202045e+01
-3.212751e+01
-3.298821e+01
-3.324229e+01
-3.449457e+01
1.625415e+03
8.119628e+01
-2.383714e+01
-3.503561e+01
-3.574978e+01
-3.587798e+01
-3.599374e+01
-3.612969e+01
-3.618929e+01
-3.613637e+01
-3.599080e+01
-3.563135e+01
-3.492024e+01
-3.551925e+01
-3.539396e+01
-3.641686e+01
-3.711250e+01
-3.446234e+01
1.775363e+03
1.329284e+02
-1.010312e+01
-2.423989e+01
-2.656053e+01
-2.637920e+01
-2.620360e+01
-2.609762e+01
-2.587014e+01
-2.564973e+01
-2.536295e+01
-2.493280e+01
-2.474785e+01
-2.746476e+01
-2.859400e+01
-2.873283e+01
-2.308959e+01
-1.442300e+01
1.899739e+03
1.970749e+02
-8.546396e+00
-2.547384e+01
-2.740011e+01
-2.708155e+01
-2.674200e+01
-2.643078e+01
-2.612764e+01
-2.577829e+01
-2.543517e+01
-2.501598e+01
-2.515430e+01
-2.858423e+01
-3.001469e+01
-2.966085e+01
-2.347948e+01
-9.542360e+00
1.963566e+03
2.067805e+02
-1.244250e+01
-2.867267e+01
-3.043777e+01
-3.013597e+01
-2.981789e+01
-2.947480e+01
-2.904895e+01
-2.864166e+01
-2.822989e+01
-2.781791e+01
-2.794109e+01
-3.150774e+01
-3.277816e+01
-3.269062e+01
-2.695095e+01
-1.362787e+01
1.970091e+03
1.865015e+02
-1.551610e+01
-3.002802e+01
-3.179369e+01
-3.162653e+01
-3.139406e+01
-3.118022e+01
-3.095547e+01
-3.066688e+01
-3.027141e+01
-2.979232e+01
-2.981925e+01
-3.289000e+01
-3.403846e+01
-3.409381e+01
-2.947240e+01
-1.718098e+01
1.947160e+03
1.657628e+02
-1.722971e+01
-3.050471e+01
-3.246198e+01
-3.226901e+01
-3.213924e+01
-3.197496e+01
-3.180201e+01
-3.161913e+01
-3.135472e+01
-3.090353e+01
-3.064164e+01
-3.371871e+01
-3.487593e+01
-3.497440e+01
-3.103286e+01
-2.005115e+01
1.866100e+03
1.518221e+02
-1.361629e+01
-2.799066e+01
-3.065016e+01
-3.044668e+01
-3.018773e+01
-3.008373e+01
-3.004596e+01
-2.998024e+01
-2.969390e+01
-2.911990e+01
-2.913430e+01
-3.219917e+01
-3.358445e+01
-3.372709e+01
-3.028727e+01
-1.943726e+01
1.569015e+03
1.374245e+02
8.941304e+00
-1.259003e+01
-1.689975e+01
-1.662423e+01
-1.611297e+01
-1.581579e+01
-1.571307e+01
-1.439060e+01
-1.222666e+01
-1.077230e+01
-1.110779e+01
-1.593901e+01
-1.887392e+01
-2.029074e+01
-1.335398e+01
-9.300811e-01
1.956400e+03
2.882295e+02
8.932134e+01
9.055250e+01
9.013685e+01
9.243774e+01
9.510496e+01
9.851248e+01
1.065658e+02
1.347199e+02
1.712308e+02
2.007717e+02
1.968881e+02
1.769421e+02
1.544921e+02
1.594306e+02
1.918118e+02
2.353993e+02
3.185256e+03
1.866739e+03
1.262161e+03
1.510609e+03
1.616389e+03
1.648637e+03
1.673384e+03
1.711554e+03
1.772346e+03
1.828737e+03
1.891177e+03
1.928293e+03
1.942067e+03
1.929313e+03
1.917797e+03
1.909459e+03
1.918673e+03
1.919247e+03
8.001057e+02
5.218524e+01
-1.277436e+01
-2.189977e+01
-2.052208e+01
-1.959801e+01
-1.912729e+01
-1.874290e+01
-1.836742e+01
-1.798828e+01
-1.759536e+01
-1.719672e+01
-1.679124e+01
-1.637231e+01
-1.594946e+01
-1.550175e+01
-1.506109e+01
-1.462695e+01
-1.419985e+01
-1.376634e+01
-1.332473e+01
-1.286202e+01
-1.238373e+01
-1.191334e+01
-1.144980e+01
-1.099984e+01
-1.057013e+01
-1.014630e+01
-9.717214e+00
-9.289939e+00
-8.877869e+00
-8.470966e+00
-8.121824e+00
-7.781946e+00
-7.452938e+00
-7.164554e+00
-6.888881e+00
-6.613415e+00
-6.343592e+00
-6.048734e+00
-5.794175e+00
-5.592357e+00
-5.388341e+00
-5.192789e+00
-5.000445e+00
-4.878184e+00
-4.797439e+00
-4.738610e+00
-4.661012e+00
-4.579644e+00
-4.512322e+00
-4.447613e+00
-4.381805e+00
-4.304267e+00
-4.239291e+00
-4.176513e+00
-4.113081e+00
-4.064527e+00
-4.012469e+00
-3.933208e+00
-3.840674e+00
-3.727856e+00
-3.561852e+00
-3.335832e+00
-3.070285e+00
-2.768181e+00
-2.349875e+00
-1.871968e+00
-1.433082e+00
-9.906918e-01
-5.778795e-01
-1.527728e-01
2.921119e-01
7.415698e-01
1.216953e+00
1.743206e+00
2.267143e+00
2.799217e+00
3.292982e+00
3.760407e+00
4.217140e+00
4.710549e+00
5.337860e+00
6.073177e+00
6.957571e+00
7.953031e+00
9.156010e+00
1.041149e+01
1.166742e+01
1.289062e+01
1.409755e+01
1.530606e+01
1.653775e+01
1.781435e+01
1.923393e+01
2.075514e+01
2.244010e+01
2.414361e+01
2.581425e+01
2.750227e+01
2.922241e+01
3.095203e+01
3.269305e+01
3.455702e+01
3.667837e+01
3.888056e+01
4.105226e+01
4.322269e+01
4.530027e+01
4.735490e+01
4.948851e+01
5.185529e+01
5.392469e+01
5.588477e+01
5.786513e+01
5.987752e+01
6.191270e+01
6.403461e+01
6.636736e+01
6.902349e+01
7.179558e+01
7.477310e+01
7.782221e+01
8.086801e+01
8.397796e+01
8.703151e+01
8.988541e+01
9.271349e+01
9.566137e+01
9.855595e+01
1.017686e+02
1.049626e+02
1.081514e+02
1.114336e+02
1.146158e+02
1.177461e+02
1.211025e+02
1.245326e+02
1.279611e+02
1.312538e+02
1.346223e+02
1.382305e+02
1.423929e+02
1.472439e+02
1.529975e+02
1.586982e+02
1.647993e+02
1.711420e+02
1.777812e+02
1.845475e+02
1.912131e+02
1.976408e+02
2.040028e+02
2.106205e+02
2.175820e+02
2.250080e+02
2.325883e+02
2.402133e+02
2.479083e+02
2.559126e+02
2.644886e+02
2.735742e+02
2.828483e+02
2.924476e+02
3.019950e+02
3.112039e+02
3.203196e+02
3.288776e+02
3.371695e+02
3.454305e+02
3.541135e+02
3.627321e+02
3.699585e+02
3.758621e+02
3.457263e+02
2.378662e+02
1.396974e+02
9.230543e+01
9.705195e+01
1.238947e+02
6.935764e+01
-6.434632e+01
-7.262775e+01
-7.318447e+01
-7.392306e+01
-7.363423e+01
-7.305226e+01
-7.247449e+01
-7.189496e+01
-7.130729e+01
-7.070662e+01
-7.009466e+01
-6.945446e+01
-6.880197e+01
-6.812700e+01
-6.744115e+01
-6.675148e+01
-6.607060e+01
-6.539304e+01
-6.470348e+01
-6.403531e+01
-6.336132e+01
-6.268177e+01
-6.203159e+01
-6.137931e+01
-6.071669e+01
-6.004483e+01
-5.935878e+01
-5.865960e+01
-5.797150e+01
-5.731129e+01
-5.665764e+01
-5.600612e+01
-5.533979e+01
-5.469098e+01
-5.403344e+01
-5.336960e+01
-5.271206e+01
-5.205879e+01
-5.140844e+01
-5.074136e+01
-5.006737e+01
-4.940416e+01
-4.874100e+01
-4.807690e+01
-4.741751e+01
-4.685455e+01
-4.634612e+01
-4.583955e+01
-4.534686e+01
-4.483726e+01
-4.429515e+01
-4.382886e+01
-4.345052e+01
-4.310664e+01
-4.278042e+01
-4.246415e+01
-4.224015e+01
-4.210601e+01
-4.195866e+01
-4.180780e+01
-4.167740e+01
-4.153640e+01
-4.137827e+01
-4.121520e+01
-4.106586e+01
-4.095176e+01
-4.086656e+01
-4.076960e+01
-4.067757e+01
-4.053684e+01
-4.050121e+01
-4.043017e+01
-4.028965e+01
-4.011613e+01
-3.992625e+01
-3.976048e+01
-3.956223e+01
-3.927542e+01
-3.898828e+01
-3.867323e+01
-3.818796e+01
-3.770976e+01
-3.719681e+01
-3.671326e+01
-3.612423e+01
-3.545097e+01
-3.483878e+01
-3.420945e+01
-3.353569e+01
-3.284735e+01
-3.215762e+01
-3.143213e+01
-3.069011e+01
-3.005650e+01
-2.954189e+01
-2.905151e+01
-2.844261e+01
-2.776950e+01
-2.680048e+01
-2.585523e+01
-2.467295e+01
-2.341643e+01
-2.227528e+01
-2.119916e+01
-2.000872e+01
-1.866890e+01
-1.729644e+01
-1.592897e+01
-1.444521e+01
-1.285080e+01
-1.123141e+01
-9.665601e+00
-8.069706e+00
-6.402302e+00
-4.675326e+00
-2.899143e+00
-1.098847e+00
7.507163e-01
2.618870e+00
4.559572e+00
6.386150e+00
8.312775e+00
1.021751e+01
1.210779e+01
1.392300e+01
1.575290e+01
1.768541e+01
1.972904e+01
2.198434e+01
2.431036e+01
2.678201e+01
2.932202e+01
3.191281e+01
3.460949e+01
3.757452e+01
4.070410e+01
4.391108e+01
4.717253e+01
5.045019e+01
5.363563e+01
5.688247e+01
6.016577e+01
6.369658e+01
6.744144e+01
7.135845e+01
7.569403e+01
8.022460e+01
8.515489e+01
9.035674e+01
9.552546e+01
1.010115e+02
1.063797e+02
1.120462e+02
1.177596e+02
1.232588e+02
1.288120e+02
1.350089e+02
1.415686e+02
1.478473e+02
1.546316e+02
1.612505e+02
1.676604e+02
1.738011e+02
1.796437e+02
1.856496e+02
1.920334e+02
1.989960e+02
2.061690e+02
2.136476e+02
2.210294e+02
2.269311e+02
2.310605e+02
2.285247e+02
1.851445e+02
1.142290e+02
3.308742e+01
4.347746e+00
4.757470e+00
7.440129e+01
5.141654e+00
-6.281998e+01
-6.121897e+01
-6.246454e+01
-6.300653e+01
-6.258240e+01
-6.196175e+01
-6.131754e+01
-6.066492e+01
-6.000804e+01
-5.933856e+01
-5.865827e+01
-5.798650e+01
-5.729433e+01
-5.658844e+01
-5.590034e+01
-5.520250e+01
-5.450496e+01
-5.380136e+01
-5.308698e+01
-5.236063e+01
-5.160833e+01
-5.086428e+01
-5.010357e+01
-4.936320e+01
-4.862177e+01
-4.797242e+01
-4.738197e+01
-4.679421e+01
-4.621551e+01
-4.563634e+01
-4.504942e+01
-4.446050e+01
-4.387064e+01
-4.326578e+01
-4.263461e+01
-4.203521e+01
-4.148093e+01
-4.091916e+01
-4.035361e+01
-3.977560e+01
-3.919423e+01
-3.860737e+01
-3.802368e+01
-3.744391e+01
-3.685075e+01
-3.626243e+01
-3.567628e+01
-3.509577e+01
-3.448889e+01
-3.385407e+01
-3.325170e+01
-3.278725e+01
-3.234522e+01
-3.192926e+01
-3.147573e+01
-3.096818e+01
-3.047228e+01
-2.995363e+01
-2.941669e+01
-2.886973e+01
-2.825795e+01
-2.768226e+01
-2.712755e+01
-2.652355e+01
-2.591216e+01
-2.531428e+01
-2.477181e+01
-2.410355e+01
-2.336984e+01
-2.262193e+01
-2.193528e+01
-2.134794e+01
-2.078938e+01
-2.020391e+01
-1.958293e+01
-1.891749e+01
-1.823972e+01
-1.755376e+01
-1.687730e+01
-1.604247e+01
-1.499843e+01
-1.401583e+01
-1.315198e+01
-1.224433e+01
-1.119860e+01
-1.010054e+01
-8.983084e+00
-7.844012e+00
-6.616652e+00
-5.337412e+00
-4.098203e+00
-2.695009e+00
-1.317325e+00
1.513203e-01
1.611264e+00
3.116406e+00
4.622796e+00
6.238112e+00
7.935926e+00
9.450630e+00
1.105220e+01
1.287040e+01
1.477861e+01
1.645350e+01
1.816703e+01
1.987449e+01
2.162193e+01
2.335939e+01
2.529777e+01
2.730024e+01
2.931037e+01
3.170912e+01
3.406358e+01
3.620607e+01
3.825104e+01
4.017927e+01
4.183130e+01
4.343762e+01
4.509600e+01
4.676847e+01
4.848361e+01
5.021030e+01
5.191698e+01
5.361185e+01
5.544067e+01
5.743119e+01
5.980117e+01
6.245421e+01
6.503313e+01
6.750840e+01
7.008703e+01
7.271604e+01
7.537770e+01
7.802688e+01
8.073412e+01
8.348088e+01
8.603951e+01
8.859993e+01
9.116355e+01
9.377001e+01
9.645525e+01
9.913109e+01
1.017049e+02
1.040249e+02
1.062043e+02
1.083975e+02
1.104453e+02
1.126182e+02
1.148206e+02
1.172451e+02
1.196733e+02
1.224723e+02
1.253155e+02
1.282619e+02
1.308646e+02
1.334553e+02
1.361110e+02
1.391684e+02
1.422015e+02
1.452494e+02
1.483703e+02
1.511503e+02
1.537070e+02
1.563393e+02
1.590972e+02
1.622746e+02
1.654986e+02
1.690516e+02
1.734937e+02
1.781650e+02
1.823530e+02
1.842903e+02
1.832518e+02
1.714716e+02
1.063770e+02
5.185915e+01
2.428063e+01
3.106687e+01
5.703358e+01
1.114939e+01
-5.488704e+01
-5.535152e+01
-5.627889e+01
-5.651637e+01
-5.607692e+01
-5.547203e+01
-5.488410e+01
-5.437008e+01
-5.385799e+01
-5.333622e+01
-5.281318e+01
-5.227688e+01
-5.172759e+01
-5.117107e+01
-5.060393e+01
-5.012186e+01
-4.964372e+01
-4.915750e+01
-4.866444e+01
-4.817365e+01
-4.768745e+01
-4.721243e+01
-4.672763e+01
-4.624304e+01
-4.575688e+01
-4.526730e+01
-4.477499e+01
-4.429937e+01
-4.380706e+01
-4.331520e+01
-4.292448e+01
-4.254626e+01
-4.215014e+01
-4.174362e+01
-4.128612e+01
-4.079167e+01
-4.028650e+01
-3.975971e+01
-3.923554e+01
-3.871614e+01
-3.818407e+01
-3.762358e+01
-3.704176e+01
-3.645644e+01
-3.581449e+01
-3.512336e+01
-3.441851e+01
-3.371619e+01
-3.303634e+01
-3.233993e+01
-3.147998e+01
-3.060381e+01
-2.975564e+01
-2.889509e+01
-2.802712e+01
-2.714409e+01
-2.623921e+01
-2.531134e+01
-2.437507e+01
-2.341111e+01
-2.244669e+01
-2.138530e+01
-2.033942e+01
-1.918110e+01
-1.789557e+01
-1.661621e+01
-1.540194e+01
-1.413690e+01
-1.285793e+01
-1.154480e+01
-1.018826e+01
-8.816575e+00
-7.517795e+00
-6.197722e+00
-4.746984e+00
-3.373012e+00
-1.996129e+00
-6.455580e-01
7.002915e-01
2.115423e+00
3.532159e+00
4.974849e+00
6.456887e+00
7.893192e+00
9.374844e+00
1.094214e+01
1.265994e+01
1.464771e+01
1.658794e+01
1.846390e+01
2.043691e+01
2.255473e+01
2.488879e+01
2.739192e+01
2.988307e+01
3.247452e+01
3.490085e+01
3.752395e+01
4.026067e+01
4.291915e+01
4.567669e+01
4.838006e+01
5.105363e+01
5.374586e+01
5.641791e+01
5.893788e+01
6.140232e+01
6.387652e+01
6.644907e+01
6.913823e+01
7.174133e+01
7.425189e+01
7.639039e+01
7.850596e+01
8.062387e+01
8.268164e+01
8.461241e+01
8.652206e+01
8.853807e+01
9.064771e+01
9.273322e+01
9.484878e+01
9.699792e+01
9.920496e+01
1.014992e+02
1.040470e+02
1.067712e+02
1.098923e+02
1.133092e+02
1.167499e+02
1.202278e+02
1.234688e+02
1.263713e+02
1.291520e+02
1.318724e+02
1.346095e+02
1.373713e+02
1.396581e+02
1.419555e+02
1.442643e+02
1.464525e+02
1.484264e+02
1.504298e+02
1.522012e+02
1.538940e+02
1.556126e+02
1.573035e+02
1.592718e+02
1.613825e+02
1.641646e+02
1.674725e+02
1.709222e+02
1.741718e+02
1.774502e+02
1.806913e+02
1.840057e+02
1.872382e+02
1.905426e+02
1.936590e+02
1.968987e+02
1.999489e+02
2.027917e+02
2.049701e+02
2.067197e+02
2.076319e+02
2.085125e+02
2.091360e+02
2.097173e+02
2.103707e+02
2.113202e+02
2.129893e+02
2.139103e+02
2.154322e+02
2.072421e+02
1.507704e+02
9.092065e+01
5.308282e+01
4.888512e+01
7.911487e+01
2.719645e+01
-4.730113e+01
-4.769506e+01
-4.799092e+01
-4.810826e+01
-4.767662e+01
-4.716990e+01
-4.672128e+01
-4.627523e+01
-4.584686e+01
-4.542143e+01
-4.499222e+01
-4.455975e+01
-4.414358e+01
-4.376486e+01
-4.337907e+01
-4.298785e+01
-4.259152e+01
-4.228187e+01
-4.197763e+01
-4.169560e+01
-4.140660e+01
-4.107287e+01
-4.066745e+01
-4.027611e+01
-3.989020e+01
-3.953238e+01
-3.915942e+01
-3.877910e+01
-3.839319e+01
-3.801305e+01
-3.762292e+01
-3.721813e+01
-3.678290e+01
-3.631702e+01
-3.582459e+01
-3.528637e+01
-3.473763e+01
-3.417159e+01
-3.359016e+01
-3.298057e+01
-3.234664e+01
-3.170543e+01
-3.105531e+01
-3.029666e+01
-2.945378e+01
-2.867546e+01
-2.788315e+01
-2.707841e+01
-2.625323e+01
-2.542065e+01
-2.456417e+01
-2.364982e+01
-2.266793e+01
-2.160918e+01
-2.053393e+01
-1.916058e+01
-1.770735e+01
-1.623790e+01
-1.475275e+01
-1.322328e+01
-1.166748e+01
-1.009997e+01
-8.570836e+00
-7.083096e+00
-5.597762e+00
-4.068536e+00
-2.474660e+00
-8.276872e-01
8.492199e-01
2.572988e+00
4.303201e+00
6.055359e+00
7.673972e+00
9.273549e+00
1.087093e+01
1.249563e+01
1.423246e+01
1.600223e+01
1.784764e+01
1.973073e+01
2.181181e+01
2.409836e+01
2.651794e+01
2.884954e+01
3.095785e+01
3.319552e+01
3.547631e+01
3.783728e+01
4.045110e+01
4.311990e+01
4.582309e+01
4.865252e+01
5.126100e+01
5.401620e+01
5.677176e+01
5.942337e+01
6.217840e+01
6.489638e+01
6.765017e+01
7.041649e+01
7.312790e+01
7.593578e+01
7.888542e+01
8.191814e+01
8.477045e+01
8.754959e+01
9.035392e+01
9.332552e+01
9.633910e+01
9.939110e+01
1.023673e+02
1.052141e+02
1.076966e+02
1.100863e+02
1.125472e+02
1.149436e+02
1.174044e+02
1.200079e+02
1.229211e+02
1.258819e+02
1.288226e+02
1.317329e+02
1.346895e+02
1.375823e+02
1.407168e+02
1.439653e+02
1.471611e+02
1.502511e+02
1.532600e+02
1.561662e+02
1.590722e+02
1.619070e+02
1.647442e+02
1.676233e+02
1.706360e+02
1.738433e+02
1.774412e+02
1.805589e+02
1.833272e+02
1.855199e+02
1.872962e+02
1.885533e+02
1.899894e+02
1.914766e+02
1.933685e+02
1.957585e+02
1.984046e+02
2.012930e+02
2.046060e+02
2.083610e+02
2.120733e+02
2.161430e+02
2.205247e+02
2.247303e+02
2.289889e+02
2.335444e+02
2.382845e+02
2.430584e+02
2.466896e+02
2.499831e+02
2.520318e+02
2.532843e+02
2.544322e+02
2.555387e+02
2.563215e+02
2.566781e+02
2.572229e+02
2.578016e+02
2.584929e+02
2.587878e+02
2.591344e+02
2.606827e+02
2.647980e+02
2.561864e+02
1.890378e+02
1.282438e+02
8.260401e+01
6.489562e+01
1.062602e+02
5.025440e+01
-3.635360e+01
-3.749256e+01
-3.785269e+01
-3.816860e+01
-3.793307e+01
-3.756166e+01
-3.720474e+01
-3.688069e+01
-3.658927e+01
-3.625834e+01
-3.589913e+01
-3.553374e+01
-3.516016e+01
-3.476412e+01
-3.437085e+01
-3.397954e+01
-3.360070e+01
-3.324796e+01
-3.291370e+01
-3.259155e+01
-3.226397e+01
-3.192421e+01
-3.159297e+01
-3.126203e+01
-3.094879e+01
-3.063891e+01
-3.031141e+01
-2.995669e+01
-2.955638e+01
-2.916055e+01
-2.876930e+01
-2.836923e+01
-2.796182e+01
-2.753371e+01
-2.708084e+01
-2.660668e+01
-2.610059e+01
-2.555729e+01
-2.495400e+01
-2.424458e+01
-2.356928e+01
-2.285686e+01
-2.206850e+01
-2.117490e+01
-2.025089e+01
-1.930173e+01
-1.834042e+01
-1.737062e+01
-1.618760e+01
-1.498874e+01
-1.378479e+01
-1.255003e+01
-1.129689e+01
-9.959300e+00
-8.546366e+00
-7.090342e+00
-5.598950e+00
-4.107468e+00
-2.577589e+00
-9.682115e-01
6.630520e-01
2.343137e+00
4.047394e+00
5.764481e+00
7.481390e+00
9.250297e+00
1.117104e+01
1.312416e+01
1.509574e+01
1.721869e+01
1.958786e+01
2.198871e+01
2.436868e+01
2.662622e+01
2.908896e+01
3.178478e+01
3.446766e+01
3.711740e+01
3.975180e+01
4.231719e+01
4.477833e+01
4.739566e+01
4.997317e+01
5.258270e+01
5.532226e+01
5.836816e+01
6.141061e+01
6.423728e+01
6.719219e+01
7.019367e+01
7.302839e+01
7.590330e+01
7.858808e+01
8.111302e+01
8.357675e+01
8.616751e+01
8.890591e+01
9.175276e+01
9.460562e+01
9.741626e+01
1.003744e+02
1.033869e+02
1.063458e+02
1.092926e+02
1.122688e+02
1.151497e+02
1.182695e+02
1.216219e+02
1.250368e+02
1.286736e+02
1.323890e+02
1.362528e+02
1.399577e+02
1.434948e+02
1.467435e+02
1.498293e+02
1.527268e+02
1.553322e+02
1.579860e+02
1.606662e+02
1.636128e+02
1.664948e+02
1.692179e+02
1.718270e+02
1.745137e+02
1.774831e+02
1.809954e+02
1.847501e+02
1.884694e+02
1.921460e+02
1.958652e+02
1.993866e+02
2.026284e+02
2.057207e+02
2.088688e+02
2.127817e+02
2.171048e+02
2.209882e+02
2.248286e+02
2.284896e+02
2.316780e+02
2.347013e+02
2.375820e+02
2.404293e+02
2.432047e+02
2.457457e+02
2.482264e+02
2.506537e+02
2.536488e+02
2.569802e+02
2.609591e+02
2.658935e+02
2.716633e+02
2.767757e+02
2.815516e+02
2.864896e+02
2.909199e+02
2.947437e+02
2.976603e+02
2.999862e+02
3.014127e+02
3.023327e+02
3.028495e+02
3.034644e+02
3.040779e+02
3.041643e+02
3.041976e+02
3.043689e+02
3.049808e+02
3.053633e+02
3.061355e+02
3.084644e+02
3.115971e+02
3.007521e+02
2.283648e+02
1.625089e+02
1.091447e+02
8.482388e+01
1.287935e+02
8.789857e+01
-2.199453e+01
-2.490064e+01
-2.771997e+01
-2.835628e+01
-2.809658e+01
-2.774400e+01
-2.737674e+01
-2.701082e+01
-2.665861e+01
-2.633154e+01
-2.601738e+01
-2.570420e+01
-2.538769e+01
-2.509666e+01
-2.479827e+01
-2.449207e+01
-2.417360e+01
-2.384228e+01
-2.348651e+01
-2.311055e+01
-2.274059e+01
-2.237268e+01
-2.203474e+01
-2.167164e+01
-2.129351e+01
-2.090618e+01
-2.049776e+01
-2.004625e+01
-1.956918e+01
-1.909739e+01
-1.861485e+01
-1.810959e+01
-1.755272e+01
-1.690293e+01
-1.627482e+01
-1.563465e+01
-1.496128e+01
-1.428497e+01
-1.357905e+01
-1.274659e+01
-1.187298e+01
-1.088283e+01
-9.777112e+00
-8.581022e+00
-7.251268e+00
-5.888640e+00
-4.499018e+00
-3.062445e+00
-1.594513e+00
-3.164038e-02
1.533251e+00
3.080533e+00
4.669211e+00
6.309978e+00
8.033865e+00
9.854622e+00
1.171984e+01
1.357174e+01
1.544732e+01
1.733050e+01
1.941176e+01
2.147502e+01
2.352082e+01
2.553879e+01
2.755792e+01
2.972212e+01
3.196014e+01
3.423814e+01
3.676962e+01
3.950052e+01
4.220913e+01
4.492841e+01
4.777285e+01
5.065942e+01
5.350398e+01
5.630648e+01
5.906341e+01
6.206456e+01
6.507570e+01
6.820428e+01
7.143018e+01
7.469957e+01
7.809638e+01
8.149575e+01
8.471894e+01
8.789750e+01
9.107004e+01
9.429183e+01
9.735422e+01
1.004163e+02
1.035534e+02
1.064046e+02
1.092634e+02
1.121213e+02
1.149531e+02
1.178365e+02
1.207195e+02
1.237561e+02
1.268459e+02
1.299744e+02
1.333463e+02
1.368442e+02
1.402269e+02
1.434384e+02
1.466627e+02
1.500550e+02
1.535493e+02
1.570127e+02
1.605559e+02
1.641465e+02
1.678052e+02
1.716504e+02
1.750239e+02
1.782136e+02
1.811598e+02
1.840772e+02
1.868726e+02
1.899224e+02
1.928091e+02
1.955509e+02
1.984525e+02
2.016815e+02
2.050582e+02
2.085274e+02
2.121033e+02
2.156994e+02
2.191269e+02
2.229075e+02
2.274032e+02
2.318295e+02
2.363390e+02
2.409957e+02
2.456579e+02
2.500819e+02
2.546681e+02
2.592374e+02
2.640799e+02
2.686880e+02
2.732735e+02
2.771150e+02
2.803858e+02
2.833855e+02
2.863843e+02
2.906685e+02
2.951871e+02
2.991967e+02
3.028584e+02
3.066426e+02
3.100889e+02
3.135961e+02
3.168683e+02
3.202250e+02
3.235223e+02
3.265437e+02
3.298430e+02
3.344397e+02
3.391285e+02
3.434290e+02
3.468090e+02
3.492577e+02
3.508695e+02
3.520718e+02
3.528429e+02
3.528935e+02
3.526854e+02
3.525823e+02
3.525635e+02
3.530660e+02
3.539888e+02
3.545884e+02
3.555978e+02
3.584173e+02
3.615887e+02
3.425233e+02
2.724729e+02
1.960835e+02
1.379326e+02
1.073982e+02
1.516151e+02
1.435397e+02
-4.411561e+00
-1.087862e+01
-1.526920e+01
-1.620916e+01
-1.602498e+01
-1.567655e+01
-1.529599e+01
-1.489051e+01
-1.451565e+01
-1.415258e+01
-1.382205e+01
-1.348788e+01
-1.314209e+01
-1.281475e+01
-1.247766e+01
-1.212956e+01
-1.177718e+01
-1.142126e+01
-1.104323e+01
-1.064841e+01
-1.024721e+01
-9.839088e+00
-9.418763e+00
-8.979818e+00
-8.556404e+00
-8.142166e+00
-7.648371e+00
-7.070624e+00
-6.461428e+00
-5.834770e+00
-5.076705e+00
-4.282648e+00
-3.472050e+00
-2.601791e+00
-1.560065e+00
-4.533023e-01
6.601714e-01
1.827544e+00
3.043739e+00
4.315792e+00
5.622799e+00
6.988248e+00
8.389185e+00
9.910333e+00
1.153937e+01
1.319454e+01
1.487180e+01
1.657656e+01
1.830731e+01
2.006645e+01
2.199186e+01
2.393746e+01
2.593690e+01
2.796619e+01
3.001029e+01
3.208291e+01
3.416164e+01
3.621513e+01
3.836721e+01
4.065921e+01
4.306973e+01
4.568130e+01
4.850033e+01
5.131948e+01
5.421875e+01
5.714437e+01
6.002635e+01
6.308291e+01
6.639169e+01
6.970215e+01
7.296921e+01
7.596280e+01
7.883914e+01
8.189983e+01
8.497331e+01
8.803403e+01
9.119414e+01
9.444880e+01
9.784813e+01
1.013726e+02
1.047320e+02
1.079844e+02
1.112803e+02
1.146786e+02
1.182069e+02
1.218841e+02
1.254863e+02
1.289674e+02
1.322022e+02
1.354184e+02
1.386019e+02
1.416539e+02
1.446563e+02
1.476763e+02
1.510471e+02
1.545928e+02
1.582518e+02
1.618820e+02
1.654623e+02
1.689247e+02
1.726829e+02
1.765326e+02
1.802093e+02
1.837856e+02
1.873522e+02
1.909636e+02
1.944240e+02
1.980609e+02
2.015077e+02
2.050380e+02
2.085920e+02
2.120399e+02
2.151435e+02
2.182087e+02
2.215856e+02
2.249686e+02
2.283174e+02
2.315762e+02
2.346716e+02
2.375593e+02
2.407557e+02
2.444409e+02
2.481937e+02
2.521156e+02
2.564853e+02
2.611620e+02
2.658476e+02
2.704921e+02
2.751386e+02
2.799149e+02
2.849300e+02
2.899670e+02
2.947874e+02
2.991982e+02
3.041052e+02
3.087850e+02
3.128446e+02
3.162845e+02
3.191280e+02
3.230190e+02
3.270187e+02
3.310346e+02
3.353663e+02
3.397743e+02
3.437660e+02
3.473946e+02
3.506984e+02
3.544047e+02
3.578360e+02
3.609139e+02
3.635694e+02
3.662219e+02
3.696917e+02
3.743170e+02
3.795482e+02
3.845298e+02
3.887392e+02
3.923511e+02
3.958286e+02
3.986179e+02
4.003744e+02
4.016042e+02
4.025702e+02
4.030122e+02
4.028910e+02
4.027460e+02
4.028702e+02
4.036307e+02
4.049418e+02
4.062151e+02
4.083701e+02
4.106880e+02
4.104819e+02
3.878517e+02
3.177527e+02
2.359021e+02
1.761386e+02
1.341710e+02
1.769574e+02
2.526915e+02
1.848695e+01
9.415826e+00
3.437367e+00
1.618124e+00
1.624242e+00
1.848332e+00
2.090478e+00
2.350175e+00
2.616910e+00
2.887475e+00
3.155249e+00
3.430596e+00
3.708200e+00
3.987912e+00
4.289689e+00
4.662738e+00
5.079351e+00
5.553309e+00
6.095123e+00
6.690866e+00
7.381312e+00
8.070778e+00
8.758432e+00
9.465538e+00
1.038732e+01
1.137467e+01
1.230524e+01
1.324039e+01
1.417286e+01
1.526065e+01
1.639744e+01
1.755851e+01
1.875128e+01
1.999458e+01
2.128502e+01
2.261840e+01
2.407959e+01
2.556875e+01
2.708607e+01
2.864235e+01
3.026854e+01
3.190232e+01
3.364450e+01
3.551696e+01
3.741686e+01
3.940744e+01
4.140742e+01
4.340775e+01
4.541249e+01
4.751136e+01
4.969416e+01
5.197456e+01
5.431759e+01
5.669893e+01
5.929525e+01
6.217807e+01
6.514390e+01
6.819821e+01
7.149663e+01
7.483654e+01
7.825453e+01
8.159632e+01
8.483500e+01
8.805696e+01
9.129894e+01
9.449518e+01
9.773450e+01
1.008889e+02
1.042109e+02
1.075274e+02
1.108159e+02
1.140988e+02
1.174176e+02
1.205034e+02
1.235487e+02
1.266189e+02
1.296210e+02
1.327731e+02
1.360008e+02
1.393392e+02
1.427410e+02
1.461728e+02
1.495867e+02
1.531524e+02
1.566265e+02
1.600299e+02
1.634932e+02
1.672795e+02
1.712452e+02
1.751261e+02
1.788234e+02
1.825517e+02
1.863555e+02
1.903190e+02
1.942308e+02
1.983640e+02
2.025990e+02
2.072231e+02
2.115270e+02
2.155411e+02
2.191371e+02
2.227089e+02
2.264429e+02
2.299932e+02
2.333426e+02
2.368853e+02
2.404407e+02
2.438473e+02
2.472397e+02
2.505962e+02
2.535836e+02
2.564693e+02
2.596752e+02
2.630274e+02
2.667977e+02
2.707733e+02
2.746105e+02
2.781049e+02
2.815574e+02
2.851225e+02
2.888480e+02
2.928710e+02
2.968554e+02
3.008831e+02
3.048746e+02
3.092714e+02
3.139327e+02
3.188224e+02
3.232084e+02
3.277140e+02
3.323559e+02
3.370591e+02
3.415894e+02
3.458359e+02
3.497114e+02
3.533971e+02
3.579283e+02
3.614739e+02
3.639063e+02
3.662268e+02
3.688228e+02
3.721736e+02
3.762861e+02
3.810391e+02
3.870118e+02
3.931052e+02
3.990206e+02
4.043897e+02
4.091477e+02
4.134981e+02
4.168181e+02
4.199221e+02
4.233971e+02
4.273533e+02
4.311039e+02
4.342756e+02
4.382517e+02
4.412021e+02
4.436880e+02
4.457356e+02
4.474389e+02
4.485481e+02
4.492979e+02
4.496225e+02
4.499041e+02
4.507697e+02
4.522127e+02
4.544182e+02
4.574958e+02
4.602544e+02
4.631783e+02
4.658032e+02
4.607856e+02
4.328859e+02
3.581879e+02
2.817123e+02
2.164628e+02
1.657693e+02
2.057040e+02
4.146747e+02
5.605707e+01
3.569995e+01
2.912103e+01
2.881355e+01
2.922856e+01
2.988331e+01
3.055036e+01
3.121811e+01
3.196368e+01
3.279283e+01
3.369891e+01
3.459851e+01