/*--------------------------------*- C++ -*----------------------------------*\
| =========                 |                                                 |
| \\      /  F ield         | OpenFOAM: The Open Source CFD Toolbox           |
|  \\    /   O peration     | Version:  v2406                                 |
|   \\  /    A nd           | Website:  www.openfoam.com                      |
|    \\/     M anipulation  |                                                 |
\*---------------------------------------------------------------------------*/
FoamFile
{
    version     2.0;
    format      ascii;
    class       volScalarField;
    location    "predicted";
    object      k;
}
// * * * * * * * * * * * * * * * * * * * * * * * * * * * * * * * * * * * * * //

dimensions      [0 2 -2 0 0 0 0];

internalField   nonuniform List<scalar>
49181
(
1.196868e+00
1.578088e+00
1.464573e+00
1.552703e+00
1.559880e+00
1.569343e+00
1.577227e+00
1.583065e+00
1.580189e+00
1.586801e+00
1.570633e+00
1.566816e+00
1.568678e+00
1.564067e+00
1.555948e+00
1.522604e+00
1.641359e+00
1.350110e+00
1.563922e+00
9.974279e-01
1.009548e+00
1.100162e+00
1.114215e+00
1.137602e+00
1.160206e+00
1.190336e+00
1.234068e+00
1.275378e+00
1.303155e+00
1.318807e+00
1.307113e+00
1.268082e+00
1.216445e+00
1.166880e+00
1.213867e+00
1.380590e+00
1.429193e+00
9.406783e-01
7.582397e-01
7.255007e-01
7.480069e-01
7.680070e-01
7.894761e-01
8.160773e-01
8.557705e-01
9.059957e-01
9.396829e-01
9.519593e-01
9.409186e-01
8.898259e-01
8.256532e-01
7.738270e-01
7.641391e-01
8.391854e-01
1.495391e+00
9.217001e-01
5.951575e-01
5.362738e-01
5.321246e-01
5.435960e-01
5.560509e-01
5.697881e-01
5.878650e-01
6.133246e-01
6.266805e-01
6.390142e-01
6.311594e-01
5.913512e-01
5.458772e-01
5.095705e-01
5.093831e-01
5.410849e-01
1.489096e+00
8.354495e-01
5.131562e-01
4.271691e-01
4.127722e-01
4.148143e-01
4.193811e-01
4.254319e-01
4.336075e-01
4.443633e-01
4.533819e-01
4.581111e-01
4.566677e-01
4.320073e-01
4.079405e-01
3.898968e-01
3.903350e-01
4.043702e-01
1.475344e+00
7.572496e-01
4.580177e-01
3.668557e-01
3.448241e-01
3.432801e-01
3.437460e-01
3.449843e-01
3.463729e-01
3.487762e-01
3.509503e-01
3.537882e-01
3.565572e-01
3.474900e-01
3.372654e-01
3.292523e-01
3.293347e-01
3.308824e-01
1.452931e+00
6.763027e-01
4.197238e-01
3.413938e-01
3.189093e-01
3.144932e-01
3.125308e-01
3.110814e-01
3.096169e-01
3.083850e-01
3.075971e-01
3.087045e-01
3.131712e-01
3.111780e-01
3.103319e-01
3.079063e-01
3.078023e-01
3.030446e-01
1.425660e+00
6.110018e-01
4.047356e-01
3.323388e-01
3.101043e-01
3.058081e-01
3.034815e-01
3.013214e-01
2.997585e-01
2.986041e-01
2.977291e-01
2.983525e-01
3.022898e-01
3.007380e-01
3.033367e-01
3.032145e-01
3.037110e-01
2.960288e-01
1.393612e+00
5.610919e-01
3.964822e-01
3.339227e-01
3.137238e-01
3.089011e-01
3.059443e-01
3.035555e-01
3.013325e-01
2.999461e-01
2.990594e-01
2.993023e-01
3.023928e-01
3.025535e-01
3.073592e-01
3.090757e-01
3.089856e-01
3.008554e-01
1.354825e+00
5.315830e-01
3.969112e-01
3.392906e-01
3.210793e-01
3.160463e-01
3.128344e-01
3.101430e-01
3.079260e-01
3.063210e-01
3.054949e-01
3.058496e-01
3.082603e-01
3.090831e-01
3.145672e-01
3.175255e-01
3.179662e-01
3.095458e-01
1.320060e+00
4.995930e-01
3.994888e-01
3.481548e-01
3.314854e-01
3.272079e-01
3.242305e-01
3.216129e-01
3.188281e-01
3.164730e-01
3.148023e-01
3.144250e-01
3.169327e-01
3.196436e-01
3.259367e-01
3.277087e-01
3.285195e-01
3.203445e-01
1.288927e+00
4.775867e-01
3.978876e-01
3.541895e-01
3.399555e-01
3.360456e-01
3.334574e-01
3.311013e-01
3.289949e-01
3.272465e-01
3.258168e-01
3.256883e-01
3.290302e-01
3.303366e-01
3.346062e-01
3.354491e-01
3.357789e-01
3.285159e-01
1.257267e+00
4.633238e-01
3.968911e-01
3.572905e-01
3.453653e-01
3.423074e-01
3.402315e-01
3.380505e-01
3.358186e-01
3.337837e-01
3.320822e-01
3.319148e-01
3.354028e-01
3.373268e-01
3.411814e-01
3.409587e-01
3.414207e-01
3.348307e-01
1.227297e+00
4.553965e-01
3.973753e-01
3.602138e-01
3.500418e-01
3.470917e-01
3.448698e-01
3.428330e-01
3.409056e-01
3.391638e-01
3.377571e-01
3.376474e-01
3.413074e-01
3.425205e-01
3.462482e-01
3.452553e-01
3.459095e-01
3.397703e-01
1.196734e+00
4.514287e-01
3.994632e-01
3.629352e-01
3.517560e-01
3.495366e-01
3.487630e-01
3.480824e-01
3.462476e-01
3.443704e-01
3.429925e-01
3.430255e-01
3.466872e-01
3.484447e-01
3.485511e-01
3.457162e-01
3.461984e-01
3.430599e-01
1.163702e+00
4.467755e-01
4.000720e-01
3.649985e-01
3.539167e-01
3.517505e-01
3.505640e-01
3.497048e-01
3.488005e-01
3.480214e-01
3.476462e-01
3.487070e-01
3.519800e-01
3.505877e-01
3.508961e-01
3.486173e-01
3.490065e-01
3.448988e-01
1.131992e+00
4.447998e-01
4.027317e-01
3.680393e-01
3.572127e-01
3.552505e-01
3.542840e-01
3.533939e-01
3.525441e-01
3.519294e-01
3.516650e-01
3.527311e-01
3.559094e-01
3.543885e-01
3.550285e-01
3.532338e-01
3.540105e-01
3.492254e-01
1.097931e+00
4.440134e-01
4.055709e-01
3.747935e-01
3.641649e-01
3.618127e-01
3.607066e-01
3.598727e-01
3.591211e-01
3.584384e-01
3.581746e-01
3.592776e-01
3.624938e-01
3.614523e-01
3.628440e-01
3.619057e-01
3.627127e-01
3.568929e-01
1.075517e+00
4.379750e-01
4.071002e-01
3.805608e-01
3.704983e-01
3.681619e-01
3.669609e-01
3.658757e-01
3.648694e-01
3.640605e-01
3.639082e-01
3.651040e-01
3.680704e-01
3.678149e-01
3.686596e-01
3.653014e-01
3.652098e-01
3.612536e-01
1.089361e+00
4.315724e-01
3.964705e-01
3.739130e-01
3.625576e-01
3.610502e-01
3.603273e-01
3.597228e-01
3.591332e-01
3.585643e-01
3.584244e-01
3.597075e-01
3.628438e-01
3.616022e-01
3.606390e-01
3.567406e-01
3.555906e-01
3.508420e-01
1.160361e+00
4.274421e-01
3.875495e-01
3.624255e-01
3.541909e-01
3.526749e-01
3.517847e-01
3.506994e-01
3.497409e-01
3.490758e-01
3.488725e-01
3.503083e-01
3.540373e-01
3.517518e-01
3.522017e-01
3.495049e-01
3.448812e-01
3.543802e-01
1.474275e+00
4.749573e-01
4.022941e-01
3.802469e-01
3.719946e-01
3.701974e-01
3.692664e-01
3.683908e-01
3.677506e-01
3.671519e-01
3.671510e-01
3.686805e-01
3.715796e-01
3.669131e-01
3.668510e-01
3.651350e-01
3.749205e-01
3.861642e-01
1.491599e+00
4.905223e-01
3.803978e-01
3.662693e-01
3.599347e-01
3.582962e-01
3.570908e-01
3.559632e-01
3.544248e-01
3.526049e-01
3.515291e-01
3.531181e-01
3.578467e-01
3.547830e-01
3.534503e-01
3.521796e-01
3.574263e-01
3.731913e-01
1.512830e+00
4.830274e-01
3.671916e-01
3.575725e-01
3.513685e-01
3.497545e-01
3.489833e-01
3.480257e-01
3.462061e-01
3.444259e-01
3.433516e-01
3.450509e-01
3.503472e-01
3.463402e-01
3.449215e-01
3.429270e-01
3.465776e-01
3.607511e-01
1.506243e+00
4.661539e-01
3.644998e-01
3.570572e-01
3.505344e-01
3.488457e-01
3.479708e-01
3.471612e-01
3.463033e-01
3.448922e-01
3.440121e-01
3.458752e-01
3.511676e-01
3.456647e-01
3.446287e-01
3.420722e-01
3.469400e-01
3.587245e-01
1.498140e+00
4.510987e-01
3.667720e-01
3.590511e-01
3.530260e-01
3.515776e-01
3.505523e-01
3.496055e-01
3.486847e-01
3.477068e-01
3.474057e-01
3.493865e-01
3.534472e-01
3.476023e-01
3.463712e-01
3.437338e-01
3.479026e-01
3.601725e-01
1.491512e+00
4.686193e-01
3.789852e-01
3.715774e-01
3.640734e-01
3.629581e-01
3.622473e-01
3.613389e-01
3.598341e-01
3.579045e-01
3.562224e-01
3.577861e-01
3.614981e-01
3.554812e-01
3.531989e-01
3.505326e-01
3.541269e-01
3.671082e-01
1.499189e+00
5.110741e-01
4.307126e-01
4.038798e-01
3.965195e-01
3.951330e-01
3.940937e-01
3.916647e-01
3.859392e-01
3.783812e-01
3.727555e-01
3.712415e-01
3.755139e-01
3.696206e-01
3.698570e-01
3.625586e-01
3.689717e-01
3.897431e-01
1.557340e+00
5.868305e-01
4.949586e-01
4.605245e-01
4.427880e-01
4.445086e-01
4.456743e-01
4.461899e-01
4.466759e-01
4.675121e-01
4.939756e-01
5.141243e-01
5.096826e-01
4.907039e-01
4.691781e-01
4.693792e-01
4.962337e-01
5.471371e-01
1.194105e+00
1.417824e+00
1.173712e+00
1.158132e+00
1.178563e+00
1.191674e+00
1.205154e+00
1.226713e+00
1.278038e+00
1.391717e+00
1.466400e+00
1.493448e+00
1.492953e+00
1.497802e+00
1.492381e+00
1.503175e+00
1.493112e+00
1.519149e+00
-1.161544e-01
2.656443e-01
3.210770e-01
2.701429e-01
2.732878e-01
2.754626e-01
2.780559e-01
2.806611e-01
2.832560e-01
2.857113e-01
2.882004e-01
2.907464e-01
2.933454e-01
2.960003e-01
2.986844e-01
3.011942e-01
3.036525e-01
3.060877e-01
3.084413e-01
3.108333e-01
3.132535e-01
3.157315e-01
3.182270e-01
3.207684e-01
3.233183e-01
3.258566e-01
3.284829e-01
3.311381e-01
3.338590e-01
3.365754e-01
3.393055e-01
3.421076e-01
3.448226e-01
3.475344e-01
3.501588e-01
3.527339e-01
3.551324e-01
3.573384e-01
3.594747e-01
3.617030e-01
3.640178e-01
3.664620e-01
3.689062e-01
3.714069e-01
3.739439e-01
3.764254e-01
3.788418e-01
3.812849e-01
3.837935e-01
3.863019e-01
3.888780e-01
3.914667e-01
3.940494e-01
3.964689e-01
3.988578e-01
4.012438e-01
4.036433e-01
4.060203e-01
4.084000e-01
4.108053e-01
4.132768e-01
4.158869e-01
4.184231e-01
4.210073e-01
4.238248e-01
4.267417e-01
4.298658e-01
4.332793e-01
4.369023e-01
4.404658e-01
4.434309e-01
4.460644e-01
4.485593e-01
4.511365e-01
4.538890e-01
4.565583e-01
4.591779e-01
4.616684e-01
4.638693e-01
4.659226e-01
4.680008e-01
4.701283e-01
4.721687e-01
4.741337e-01
4.764076e-01
4.792126e-01
4.824070e-01
4.855947e-01
4.887719e-01
4.918861e-01
4.950970e-01
4.983860e-01
5.017737e-01
5.052226e-01
5.089273e-01
5.131525e-01
5.178338e-01
5.226543e-01
5.276386e-01
5.324948e-01
5.371107e-01
5.418016e-01
5.457472e-01
5.496470e-01
5.541607e-01
5.597807e-01
5.655344e-01
5.714956e-01
5.776501e-01
5.838001e-01
5.903334e-01
5.974200e-01
6.041815e-01
6.113042e-01
6.182399e-01
6.250841e-01
6.322978e-01
6.394465e-01
6.470129e-01
6.557931e-01
6.652674e-01
6.744833e-01
6.836487e-01
6.930206e-01
7.025958e-01
7.125073e-01
7.230304e-01
7.336754e-01
7.441736e-01
7.540216e-01
7.632232e-01
7.715763e-01
7.804826e-01
7.896511e-01
7.986210e-01
8.066985e-01
8.153468e-01
8.241021e-01
8.332686e-01
8.420898e-01
8.512582e-01
8.604327e-01
8.697588e-01
8.790441e-01
8.880095e-01
8.955496e-01
9.024012e-01
9.089771e-01
9.150516e-01
9.200355e-01
9.246398e-01
9.270392e-01
9.283473e-01
9.301591e-01
9.324781e-01
9.353773e-01
9.390702e-01
9.419773e-01
9.441526e-01
9.446068e-01
9.442310e-01
9.418637e-01
9.375408e-01
9.328277e-01
9.277541e-01
9.224407e-01
9.164147e-01
9.085090e-01
8.994100e-01
8.915497e-01
8.819569e-01
8.768326e-01
8.767028e-01
8.770666e-01
9.003646e-01
8.544425e-01
7.675802e-01
6.841937e-01
6.862868e-01
8.207719e-01
2.672033e-01
1.032286e-01
4.697655e-02
8.386608e-02
8.896860e-02
9.180477e-02
9.582900e-02
9.983894e-02
1.038208e-01
1.078461e-01
1.119181e-01
1.160485e-01
1.202093e-01
1.243304e-01
1.282653e-01
1.322193e-01
1.362241e-01
1.402797e-01
1.443924e-01
1.486881e-01
1.530774e-01
1.575237e-01
1.620115e-01
1.665206e-01
1.710807e-01
1.756795e-01
1.802992e-01
1.850057e-01
1.896528e-01
1.942146e-01
1.987607e-01
2.032860e-01
2.079118e-01
2.125568e-01
2.171343e-01
2.217085e-01
2.263275e-01
2.309411e-01
2.354789e-01
2.399530e-01
2.443836e-01
2.488302e-01
2.533109e-01
2.577862e-01
2.622321e-01
2.666058e-01
2.704380e-01
2.741578e-01
2.778779e-01
2.817324e-01
2.855402e-01
2.892717e-01
2.930590e-01
2.968361e-01
3.006315e-01
3.043433e-01
3.079488e-01
3.117149e-01
3.154633e-01
3.192656e-01
3.230537e-01
3.268603e-01
3.309045e-01
3.349825e-01
3.391297e-01
3.434205e-01
3.477619e-01
3.522433e-01
3.567900e-01
3.615400e-01
3.662987e-01
3.711165e-01
3.759869e-01
3.810211e-01
3.861925e-01
3.913741e-01
3.967079e-01
4.021072e-01
4.078014e-01
4.135183e-01
4.193673e-01
4.254886e-01
4.315663e-01
4.377341e-01
4.433531e-01
4.492217e-01
4.552044e-01
4.618446e-01
4.685928e-01
4.754047e-01
4.821339e-01
4.891311e-01
4.963693e-01
5.035066e-01
5.099972e-01
5.164939e-01
5.231307e-01
5.299096e-01
5.368441e-01
5.447873e-01
5.528703e-01
5.614995e-01
5.705038e-01
5.793048e-01
5.883320e-01
5.975726e-01
6.071713e-01
6.170896e-01
6.271446e-01
6.369536e-01
6.468901e-01
6.565635e-01
6.659235e-01
6.752492e-01
6.847477e-01
6.941165e-01
7.035886e-01
7.124440e-01
7.212862e-01
7.302937e-01
7.395493e-01
7.509125e-01
7.627131e-01
7.737153e-01
7.843699e-01
7.949326e-01
8.064933e-01
8.190131e-01
8.318241e-01
8.447967e-01
8.579083e-01
8.720056e-01
8.871186e-01
9.019749e-01
9.172699e-01
9.338238e-01
9.508589e-01
9.673606e-01
9.830435e-01
9.991149e-01
1.015760e+00
1.032835e+00
1.049160e+00
1.066238e+00
1.083875e+00
1.100999e+00
1.118534e+00
1.136222e+00
1.152876e+00
1.168818e+00
1.184376e+00
1.199816e+00
1.214556e+00
1.228843e+00
1.243852e+00
1.259130e+00
1.274209e+00
1.290672e+00
1.307663e+00
1.324030e+00
1.338163e+00
1.352288e+00
1.366146e+00
1.379266e+00
1.392491e+00
1.407664e+00
1.425762e+00
1.443639e+00
1.460493e+00
1.476298e+00
1.489650e+00
1.498098e+00
1.510681e+00
1.522746e+00
1.395997e+00
1.166911e+00
8.614290e-01
7.066519e-01
7.033251e-01
8.935286e-01
3.471931e-01
7.998257e-02
1.445000e-01
1.549900e-01
1.541360e-01
1.567015e-01
1.603193e-01
1.640621e-01
1.678836e-01
1.719772e-01
1.761128e-01
1.802034e-01
1.842520e-01
1.883242e-01
1.924059e-01
1.965004e-01
2.006191e-01
2.047613e-01
2.089396e-01
2.131562e-01
2.173954e-01
2.215624e-01
2.257779e-01
2.301801e-01
2.347156e-01
2.393264e-01
2.441302e-01
2.490005e-01
2.539480e-01
2.588604e-01
2.637333e-01
2.686757e-01
2.736404e-01
2.786539e-01
2.837897e-01
2.889931e-01
2.940577e-01
2.991229e-01
3.041685e-01
3.091604e-01
3.141660e-01
3.192115e-01
3.243019e-01
3.294485e-01
3.347574e-01
3.400750e-01
3.453988e-01
3.507880e-01
3.563469e-01
3.620827e-01
3.679086e-01
3.738746e-01
3.797477e-01
3.854367e-01
3.910186e-01
3.966396e-01
4.024904e-01
4.080869e-01
4.135690e-01
4.189979e-01
4.244013e-01
4.300503e-01
4.360970e-01
4.426763e-01
4.492315e-01
4.559251e-01
4.627931e-01
4.693138e-01
4.761440e-01
4.830691e-01
4.898179e-01
4.965159e-01
5.031761e-01
5.098213e-01
5.164567e-01
5.232465e-01
5.301584e-01
5.372065e-01
5.442419e-01
5.513859e-01
5.584117e-01
5.658195e-01
5.734434e-01
5.812946e-01
5.892476e-01
5.976192e-01
6.066628e-01
6.159038e-01
6.248790e-01
6.343289e-01
6.439831e-01
6.537997e-01
6.639710e-01
6.740263e-01
6.843751e-01
6.953522e-01
7.068313e-01
7.185886e-01
7.311590e-01
7.453193e-01
7.620699e-01
7.792063e-01
7.965953e-01
8.134324e-01
8.293939e-01
8.462154e-01
8.633920e-01
8.803478e-01
8.975063e-01
9.149802e-01
9.323931e-01
9.502012e-01
9.699092e-01
9.892888e-01
1.008415e+00
1.027433e+00
1.046130e+00
1.064467e+00
1.083291e+00
1.102357e+00
1.121122e+00
1.139610e+00
1.158459e+00
1.176757e+00
1.195440e+00
1.214602e+00
1.234085e+00
1.254647e+00
1.276604e+00
1.298507e+00
1.320320e+00
1.341835e+00
1.362852e+00
1.383531e+00
1.403542e+00
1.423658e+00
1.444194e+00
1.465430e+00
1.486671e+00
1.507341e+00
1.527480e+00
1.546446e+00
1.565062e+00
1.583826e+00
1.602461e+00
1.620211e+00
1.636826e+00
1.654204e+00
1.672454e+00
1.690816e+00
1.709258e+00
1.727035e+00
1.745591e+00
1.765136e+00
1.786553e+00
1.808201e+00
1.830806e+00
1.853712e+00
1.876215e+00
1.898620e+00
1.921665e+00
1.944677e+00
1.966376e+00
1.985495e+00
2.004351e+00
2.025342e+00
2.045356e+00
2.064579e+00
2.083276e+00
2.100222e+00
2.116477e+00
2.129149e+00
2.131570e+00
2.108781e+00
1.956446e+00
1.561162e+00
1.123013e+00
8.781238e-01
8.564488e-01
1.126347e+00
2.873529e-01
1.286600e-01
1.690956e-01
1.827836e-01
1.843185e-01
1.870459e-01
1.908821e-01
1.948486e-01
1.987766e-01
2.027262e-01
2.067229e-01
2.108692e-01
2.151028e-01
2.193713e-01
2.236663e-01
2.279653e-01
2.323780e-01
2.367859e-01
2.412401e-01
2.457253e-01
2.502156e-01
2.546701e-01
2.591520e-01
2.636933e-01
2.683954e-01
2.732328e-01
2.780863e-01
2.830380e-01
2.880420e-01
2.930068e-01
2.979761e-01
3.029390e-01
3.079570e-01
3.131020e-01
3.185483e-01
3.241883e-01
3.299807e-01
3.358223e-01
3.417589e-01
3.479431e-01
3.542942e-01
3.606761e-01
3.669409e-01
3.731203e-01
3.793546e-01
3.858613e-01
3.923706e-01
3.990694e-01
4.061762e-01
4.134278e-01
4.208446e-01
4.282928e-01
4.358088e-01
4.433827e-01
4.510021e-01
4.586634e-01
4.663105e-01
4.740277e-01
4.819026e-01
4.896010e-01
4.974111e-01
5.052976e-01
5.131760e-01
5.209671e-01
5.290766e-01
5.376332e-01
5.462420e-01
5.547305e-01
5.631884e-01
5.716306e-01
5.799685e-01
5.884405e-01
5.969956e-01
6.050632e-01
6.131651e-01
6.214233e-01
6.296801e-01
6.378331e-01
6.461826e-01
6.545422e-01
6.629883e-01
6.714936e-01
6.805956e-01
6.906268e-01
7.008594e-01
7.111558e-01
7.219158e-01
7.335617e-01
7.466819e-01
7.609513e-01
7.770277e-01
7.934362e-01
8.106378e-01
8.296065e-01
8.498113e-01
8.702166e-01
8.917186e-01
9.125781e-01
9.338539e-01
9.563011e-01
9.782987e-01
1.000647e+00
1.022190e+00
1.043526e+00
1.065256e+00
1.087466e+00
1.109298e+00
1.132213e+00
1.155433e+00
1.179844e+00
1.205260e+00
1.230539e+00
1.256038e+00
1.281253e+00
1.306492e+00
1.331764e+00
1.357381e+00
1.383123e+00
1.408777e+00
1.434363e+00
1.460171e+00
1.485916e+00
1.511501e+00
1.536240e+00
1.561230e+00
1.586281e+00
1.611926e+00
1.636881e+00
1.662658e+00
1.689844e+00
1.717184e+00
1.745298e+00
1.773018e+00
1.799256e+00
1.825068e+00
1.850957e+00
1.878082e+00
1.906216e+00
1.933018e+00
1.959508e+00
1.985263e+00
2.009018e+00
2.030021e+00
2.051417e+00
2.073120e+00
2.094139e+00
2.115015e+00
2.135558e+00
2.157991e+00
2.182220e+00
2.207068e+00
2.234723e+00
2.262569e+00
2.289630e+00
2.317625e+00
2.345916e+00
2.375705e+00
2.405075e+00
2.435892e+00
2.466497e+00
2.498408e+00
2.529442e+00
2.557061e+00
2.582301e+00
2.605955e+00
2.625229e+00
2.643785e+00
2.663937e+00
2.684081e+00
2.704800e+00
2.723965e+00
2.738738e+00
2.736219e+00
2.684502e+00
2.496595e+00
2.032862e+00
1.477839e+00
1.090453e+00
1.002123e+00
1.350220e+00
2.757804e-01
1.427353e-01
1.825518e-01
2.030262e-01
2.041786e-01
2.069698e-01
2.106974e-01
2.147008e-01
2.187497e-01
2.227149e-01
2.265361e-01
2.303909e-01
2.342717e-01
2.380962e-01
2.419799e-01
2.459307e-01
2.498875e-01
2.538754e-01
2.578980e-01
2.619705e-01
2.659944e-01
2.700920e-01
2.743521e-01
2.790458e-01
2.840858e-01
2.892169e-01
2.943930e-01
2.995359e-01
3.047310e-01
3.100665e-01
3.155690e-01
3.211571e-01
3.268172e-01
3.325551e-01
3.384246e-01
3.444196e-01
3.507315e-01
3.571103e-01
3.633785e-01
3.697706e-01
3.762209e-01
3.827672e-01
3.894468e-01
3.962298e-01
4.035436e-01
4.113163e-01
4.189069e-01
4.265245e-01
4.342071e-01
4.419873e-01
4.498117e-01
4.578401e-01
4.658531e-01
4.739505e-01
4.818969e-01
4.898790e-01
4.985141e-01
5.069890e-01
5.154487e-01
5.239511e-01
5.326903e-01
5.413590e-01
5.501273e-01
5.590232e-01
5.677780e-01
5.763036e-01
5.849142e-01
5.936346e-01
6.024931e-01
6.111374e-01
6.192611e-01
6.272959e-01
6.355238e-01
6.445825e-01
6.540698e-01
6.637807e-01
6.735403e-01
6.834081e-01
6.934856e-01
7.041241e-01
7.153543e-01
7.275706e-01
7.406920e-01
7.543160e-01
7.687542e-01
7.848834e-01
8.023384e-01
8.201604e-01
8.388642e-01
8.596403e-01
8.813182e-01
9.034925e-01
9.269945e-01
9.506920e-01
9.745859e-01
9.988078e-01
1.022476e+00
1.046225e+00
1.069508e+00
1.092968e+00
1.116595e+00
1.139864e+00
1.163564e+00
1.188200e+00
1.214746e+00
1.241436e+00
1.268101e+00
1.294639e+00
1.322376e+00
1.350632e+00
1.379138e+00
1.408200e+00
1.436831e+00
1.464841e+00
1.492643e+00
1.521472e+00
1.550378e+00
1.579665e+00
1.608776e+00
1.637876e+00
1.666805e+00
1.695577e+00
1.724213e+00
1.753281e+00
1.781700e+00
1.810815e+00
1.840240e+00
1.869587e+00
1.899208e+00
1.928398e+00
1.956757e+00
1.984996e+00
2.013259e+00
2.042712e+00
2.072183e+00
2.100636e+00
2.128907e+00
2.156892e+00
2.183487e+00
2.209271e+00
2.232529e+00
2.253936e+00
2.274074e+00
2.294740e+00
2.315363e+00
2.337685e+00
2.360999e+00
2.386151e+00
2.412619e+00
2.440229e+00
2.468906e+00
2.499558e+00
2.532275e+00
2.565991e+00
2.599197e+00
2.632748e+00
2.668484e+00
2.706539e+00
2.747072e+00
2.785132e+00
2.822199e+00
2.854638e+00
2.885169e+00
2.912425e+00
2.936690e+00
2.960046e+00
2.980916e+00
3.003809e+00
3.029576e+00
3.056996e+00
3.081891e+00
3.103594e+00
3.105994e+00
3.043405e+00
2.801282e+00
2.302180e+00
1.705347e+00
1.268475e+00
1.114126e+00
1.535197e+00
2.658735e-01
1.636765e-01
2.048579e-01
2.227110e-01
2.235067e-01
2.258928e-01
2.291975e-01
2.325670e-01
2.360065e-01
2.393610e-01
2.428506e-01
2.464697e-01
2.501120e-01
2.538012e-01
2.575455e-01
2.613937e-01
2.653377e-01
2.692983e-01
2.734405e-01
2.778327e-01
2.823334e-01
2.869177e-01
2.916142e-01
2.964312e-01
3.014066e-01
3.067090e-01
3.122466e-01
3.178462e-01
3.234797e-01
3.293718e-01
3.353725e-01
3.414711e-01
3.476124e-01
3.538093e-01
3.600725e-01
3.665017e-01
3.730143e-01
3.793167e-01
3.856212e-01
3.921834e-01
3.992773e-01
4.061890e-01
4.131153e-01
4.201793e-01
4.274178e-01
4.348048e-01
4.423149e-01
4.498692e-01
4.575047e-01
4.656900e-01
4.735718e-01
4.815006e-01
4.895452e-01
4.975473e-01
5.056236e-01
5.139439e-01
5.222454e-01
5.303785e-01
5.387419e-01
5.471301e-01
5.556066e-01
5.641016e-01
5.727988e-01
5.815926e-01
5.905489e-01
5.996726e-01
6.089754e-01
6.185064e-01
6.280069e-01
6.376639e-01
6.481026e-01
6.595846e-01
6.712409e-01
6.834945e-01
6.960758e-01
7.095211e-01
7.238146e-01
7.380926e-01
7.523145e-01
7.665743e-01
7.825470e-01
7.995188e-01
8.169854e-01
8.345640e-01
8.532939e-01
8.730605e-01
8.953009e-01
9.182035e-01
9.424259e-01
9.678915e-01
9.934972e-01
1.018088e+00
1.042808e+00
1.067185e+00
1.091487e+00
1.114994e+00
1.139571e+00
1.164574e+00
1.190047e+00
1.215952e+00
1.241799e+00
1.268728e+00
1.295882e+00
1.323473e+00
1.351854e+00
1.380085e+00
1.408261e+00
1.437154e+00
1.467339e+00
1.498185e+00
1.529904e+00
1.561935e+00
1.593985e+00
1.624716e+00
1.654719e+00
1.684577e+00
1.714484e+00
1.744407e+00
1.773415e+00
1.802822e+00
1.832355e+00
1.864511e+00
1.896146e+00
1.926750e+00
1.957620e+00
1.989015e+00
2.020141e+00
2.049915e+00
2.079640e+00
2.108840e+00
2.137407e+00
2.164748e+00
2.191917e+00
2.218676e+00
2.246122e+00
2.273595e+00
2.302306e+00
2.332487e+00
2.361862e+00
2.390890e+00
2.419945e+00
2.448626e+00
2.475710e+00
2.501671e+00
2.527677e+00
2.553983e+00
2.579143e+00
2.604265e+00
2.629968e+00
2.658579e+00
2.689487e+00
2.723599e+00
2.760153e+00
2.797833e+00
2.837600e+00
2.879145e+00
2.920895e+00
2.963040e+00
3.008072e+00
3.050999e+00
3.091754e+00
3.131365e+00
3.166495e+00
3.194446e+00
3.218781e+00
3.240811e+00
3.263278e+00
3.287450e+00
3.316538e+00
3.345999e+00
3.373215e+00
3.395827e+00
3.399092e+00
3.326499e+00
3.036029e+00
2.497521e+00
1.875210e+00
1.396713e+00
1.224061e+00
1.678403e+00
2.619339e-01
1.873741e-01
2.315504e-01
2.434022e-01
2.437193e-01
2.463824e-01
2.496867e-01
2.531111e-01
2.566227e-01
2.601969e-01
2.637344e-01
2.673695e-01
2.711461e-01
2.752183e-01
2.794285e-01
2.838470e-01
2.883301e-01
2.928581e-01
2.974252e-01
3.021571e-01
3.070430e-01
3.121687e-01
3.174568e-01
3.228527e-01
3.283970e-01
3.340333e-01
3.397269e-01
3.455203e-01
3.514077e-01
3.573376e-01
3.632028e-01
3.690857e-01
3.750052e-01
3.808836e-01
3.869725e-01
3.929913e-01
3.989371e-01
4.048768e-01
4.107825e-01
4.167100e-01
4.227871e-01
4.290994e-01
4.358644e-01
4.429964e-01
4.504059e-01
4.580185e-01
4.657007e-01
4.734773e-01
4.814022e-01
4.894520e-01
4.977531e-01
5.062116e-01
5.147553e-01
5.235475e-01
5.323773e-01
5.414591e-01
5.507304e-01
5.601195e-01
5.693502e-01
5.786216e-01
5.882392e-01
5.981412e-01
6.078901e-01
6.176484e-01
6.277363e-01
6.381289e-01
6.490471e-01
6.599930e-01
6.719175e-01
6.850010e-01
6.992776e-01
7.136334e-01
7.280093e-01
7.424435e-01
7.577249e-01
7.737251e-01
7.909933e-01
8.092417e-01
8.282762e-01
8.479494e-01
8.684638e-01
8.894832e-01
9.107930e-01
9.331152e-01
9.569115e-01
9.813150e-01
1.006090e+00
1.030851e+00
1.055310e+00
1.079975e+00
1.105517e+00
1.131404e+00
1.155478e+00
1.179660e+00
1.204479e+00
1.230497e+00
1.257530e+00
1.284513e+00
1.312141e+00
1.339455e+00
1.367550e+00
1.396959e+00
1.427380e+00
1.457807e+00
1.488452e+00
1.518885e+00
1.549543e+00
1.579928e+00
1.611006e+00
1.642152e+00
1.673800e+00
1.706018e+00
1.738452e+00
1.768522e+00
1.798619e+00
1.828296e+00
1.857876e+00
1.888496e+00
1.920135e+00
1.951444e+00
1.983531e+00
2.017076e+00
2.051085e+00
2.083684e+00
2.115347e+00
2.146280e+00
2.176864e+00
2.205355e+00
2.233334e+00
2.262371e+00
2.290189e+00
2.319402e+00
2.349402e+00
2.379759e+00
2.409468e+00
2.440262e+00
2.471000e+00
2.503114e+00
2.534731e+00
2.566211e+00
2.598414e+00
2.630429e+00
2.662156e+00
2.693799e+00
2.729115e+00
2.764845e+00
2.798803e+00
2.831826e+00
2.866628e+00
2.900928e+00
2.935633e+00
2.970615e+00
3.010642e+00
3.051154e+00
3.092858e+00
3.143315e+00
3.199021e+00
3.254537e+00
3.308676e+00
3.361076e+00
3.408529e+00
3.447329e+00
3.480908e+00
3.507022e+00
3.527749e+00
3.546379e+00
3.567641e+00
3.592086e+00
3.620128e+00
3.649796e+00
3.675326e+00
3.696805e+00
3.693264e+00
3.601806e+00
3.290587e+00
2.687116e+00
2.037407e+00
1.523061e+00
1.338436e+00
1.831773e+00
2.484314e-01
2.030015e-01
2.608214e-01
2.668669e-01
2.664973e-01
2.696794e-01
2.735184e-01
2.775288e-01
2.817202e-01
2.859342e-01
2.901632e-01
2.942773e-01
2.984996e-01
3.027371e-01
3.072063e-01
3.117640e-01
3.163946e-01
3.209514e-01
3.255692e-01
3.306058e-01
3.356928e-01
3.408276e-01
3.460469e-01
3.513808e-01
3.567218e-01
3.620741e-01
3.675469e-01
3.731371e-01
3.788106e-01
3.843213e-01
3.895387e-01
3.952510e-01
4.010319e-01
4.068506e-01
4.128291e-01
4.193185e-01
4.260177e-01
4.327482e-01
4.398277e-01
4.471816e-01
4.546492e-01
4.622346e-01
4.699542e-01
4.776973e-01
4.854699e-01
4.932972e-01
5.010902e-01
5.090502e-01
5.171620e-01
5.254109e-01
5.337058e-01
5.423792e-01
5.514441e-01
5.611877e-01
5.712601e-01
5.816664e-01
5.921475e-01
6.028999e-01
6.136955e-01
6.247507e-01
6.361708e-01
6.480251e-01
6.605090e-01
6.734921e-01
6.863977e-01
6.994573e-01
7.122353e-01
7.256863e-01
7.409531e-01
7.570910e-01
7.732604e-01
7.894917e-01
8.071234e-01
8.253856e-01
8.445411e-01
8.639742e-01
8.837448e-01
9.040777e-01
9.249156e-01
9.467067e-01
9.691205e-01
9.920941e-01
1.015252e+00
1.039125e+00
1.063855e+00
1.089441e+00
1.115054e+00
1.140458e+00
1.165552e+00
1.189423e+00
1.213792e+00
1.237910e+00
1.263321e+00
1.289498e+00
1.316265e+00
1.345558e+00
1.376224e+00
1.406793e+00
1.437154e+00
1.467917e+00
1.498339e+00
1.528827e+00
1.559198e+00
1.589972e+00
1.620873e+00
1.651708e+00
1.682353e+00
1.712484e+00
1.743080e+00
1.773323e+00
1.803021e+00
1.832725e+00
1.863009e+00
1.892861e+00
1.922059e+00
1.954478e+00
1.988371e+00
2.022101e+00
2.055900e+00
2.089841e+00
2.123700e+00
2.157678e+00
2.192391e+00
2.226819e+00
2.260341e+00
2.292820e+00
2.323562e+00
2.353747e+00
2.383993e+00
2.414322e+00
2.445387e+00
2.477591e+00
2.509032e+00
2.539823e+00
2.570103e+00
2.601398e+00
2.633869e+00
2.666108e+00
2.697949e+00
2.729381e+00
2.764966e+00
2.804000e+00
2.844771e+00
2.890066e+00
2.939031e+00
2.987130e+00
3.031156e+00
3.073461e+00
3.116565e+00
3.158116e+00
3.199261e+00
3.241863e+00
3.286327e+00
3.331533e+00
3.382398e+00
3.437960e+00
3.496483e+00
3.554804e+00
3.611435e+00
3.664700e+00
3.713570e+00
3.756054e+00
3.792332e+00
3.821800e+00
3.845705e+00
3.866718e+00
3.889308e+00
3.914140e+00
3.942694e+00
3.970860e+00
3.996120e+00
4.017515e+00
4.011148e+00
3.901082e+00
3.560229e+00
2.903384e+00
2.189698e+00
1.668073e+00
1.467270e+00
1.987016e+00
2.363245e-01
2.106776e-01
2.824887e-01
2.881979e-01
2.880015e-01
2.913736e-01
2.954964e-01
2.996908e-01
3.040023e-01
3.084178e-01
3.128619e-01
3.173721e-01
3.218552e-01
3.264440e-01
3.311096e-01
3.358094e-01
3.404660e-01
3.453561e-01
3.506321e-01
3.561507e-01
3.617480e-01
3.674120e-01
3.729707e-01
3.782882e-01
3.836522e-01
3.895323e-01
3.955977e-01
4.018831e-01
4.082132e-01
4.145526e-01
4.208565e-01
4.272650e-01
4.337830e-01
4.404131e-01
4.472421e-01
4.540855e-01
4.610650e-01
4.682818e-01
4.757078e-01
4.834768e-01
4.913541e-01
4.993791e-01
5.075152e-01
5.157058e-01
5.239981e-01
5.328890e-01
5.419175e-01
5.510651e-01
5.602382e-01
5.696229e-01
5.794569e-01
5.896640e-01
6.002010e-01
6.110003e-01
6.218961e-01
6.333980e-01
6.464341e-01
6.597286e-01
6.731784e-01
6.871326e-01
7.016856e-01
7.172180e-01
7.327866e-01
7.482692e-01
7.637900e-01
7.787952e-01
7.936634e-01
8.094491e-01
8.277447e-01
8.475555e-01
8.675859e-01
8.874158e-01
9.071860e-01
9.276680e-01
9.479561e-01
9.683795e-01
9.888907e-01
1.009948e+00
1.031843e+00
1.054679e+00
1.078231e+00
1.102140e+00
1.126530e+00
1.151318e+00
1.175788e+00
1.200252e+00
1.224429e+00
1.248885e+00
1.274761e+00
1.301245e+00
1.327959e+00
1.354082e+00
1.382065e+00
1.410928e+00
1.439510e+00
1.468232e+00
1.497894e+00
1.528655e+00
1.559655e+00
1.590478e+00
1.620945e+00
1.650320e+00
1.679438e+00
1.708966e+00
1.739948e+00
1.769058e+00
1.798091e+00
1.827153e+00
1.855442e+00
1.883859e+00
1.913319e+00
1.943776e+00
1.975591e+00
2.010513e+00
2.046100e+00
2.083659e+00
2.120930e+00
2.157025e+00
2.191507e+00
2.226427e+00
2.261288e+00
2.295923e+00
2.330717e+00
2.365082e+00
2.398428e+00
2.429850e+00
2.461156e+00
2.492502e+00
2.526071e+00
2.558414e+00
2.590673e+00
2.623006e+00
2.655696e+00
2.688787e+00
2.721011e+00
2.754055e+00
2.787092e+00
2.825564e+00
2.866333e+00
2.907733e+00
2.950150e+00
2.995061e+00
3.042660e+00
3.093002e+00
3.148119e+00
3.207355e+00
3.265000e+00
3.320583e+00
3.373950e+00
3.426315e+00
3.476185e+00
3.524861e+00
3.574209e+00
3.623440e+00
3.675493e+00
3.728279e+00
3.782527e+00
3.839292e+00
3.892268e+00
3.944276e+00
3.991714e+00
4.032399e+00
4.067224e+00
4.097233e+00
4.121735e+00
4.143384e+00
4.166729e+00
4.193321e+00
4.223255e+00
4.256926e+00
4.287617e+00
4.315109e+00
4.313638e+00
4.196593e+00
3.837417e+00
3.139483e+00
2.329970e+00
1.806589e+00
1.601718e+00
2.142894e+00
2.840783e-01
2.097477e-01
3.010629e-01
3.032951e-01
3.038985e-01
3.083438e-01
3.132552e-01
3.183337e-01
3.235013e-01
3.289489e-01
3.346037e-01
3.403492e-01
3.461542e-01
3.519761e-01
3.577827e-01
3.632691e-01
3.687540e-01
3.742195e-01
3.799310e-01
3.857443e-01
3.914284e-01
3.971916e-01
4.029701e-01
4.089084e-01
4.150931e-01
4.213141e-01
4.275388e-01
4.339838e-01
4.405438e-01
4.471955e-01
4.537269e-01
4.602880e-01
4.669106e-01
4.736440e-01
4.805218e-01
4.874289e-01
4.948420e-01
5.028475e-01
5.111450e-01
5.197585e-01
5.285650e-01
5.374186e-01
5.463953e-01
5.554051e-01
5.645906e-01
5.738470e-01
5.832958e-01
5.942101e-01
6.052411e-01
6.166528e-01
6.289413e-01
6.423658e-01
6.566512e-01
6.715212e-01
6.867412e-01
7.019234e-01
7.173990e-01
7.329625e-01
7.486546e-01
7.648950e-01
7.814207e-01
7.983776e-01
8.151983e-01
8.328892e-01
8.526011e-01
8.725082e-01
8.927470e-01
9.139628e-01
9.349222e-01
9.559516e-01
9.771643e-01
9.980741e-01
1.018825e+00
1.039552e+00
1.060920e+00
1.082449e+00
1.103845e+00
1.125315e+00
1.147149e+00
1.170269e+00
1.193846e+00