/*--------------------------------*- C++ -*----------------------------------*\
| =========                 |                                                 |
| \\      /  F ield         | OpenFOAM: The Open Source CFD Toolbox           |
|  \\    /   O peration     | Version:  v2406                                 |
|   \\  /    A nd           | Website:  www.openfoam.com                      |
|    \\/     M anipulation  |                                                 |
\*---------------------------------------------------------------------------*/
FoamFile
{
    version     2.0;
    format      ascii;
    class       volScalarField;
    location    "predicted";
    object      nut;
}
// * * * * * * * * * * * * * * * * * * * * * * * * * * * * * * * * * * * * * //

dimensions      [0 2 -1 0 0 0 0];

internalField   nonuniform List<scalar>
49181
(
-6.070030e-04
2.094394e-04
2.036542e-04
2.027982e-05
-3.377968e-05
-3.865741e-05
-3.915634e-05
-3.627103e-05
-3.179233e-05
-6.835494e-06
-6.873739e-06
-5.158983e-06
-5.534012e-06
-9.386164e-06
-6.445635e-06
-9.642558e-06
2.802373e-05
-8.218348e-05
2.128729e-04
3.563691e-04
3.801608e-04
2.908191e-04
2.578402e-04
2.564130e-04
2.553959e-04
2.529928e-04
2.581545e-04
2.623152e-04
2.666262e-04
2.672418e-04
2.684785e-04
2.602248e-04
2.567210e-04
2.556418e-04
3.031452e-04
3.438547e-04
2.231189e-04
4.003781e-04
4.640447e-04
3.996610e-04
3.799100e-04
3.747618e-04
3.713622e-04
3.667870e-04
3.581619e-04
3.526628e-04
3.454385e-04
3.456363e-04
3.503771e-04
3.526414e-04
3.620569e-04
3.699446e-04
3.661058e-04
3.666245e-04
5.340341e-05
3.371197e-04
4.462246e-04
4.012688e-04
3.806438e-04
3.760149e-04
3.719003e-04
3.675393e-04
3.617902e-04
3.542779e-04
3.462563e-04
3.497447e-04
3.560466e-04
3.598748e-04
3.716241e-04
3.826533e-04
3.843826e-04
3.634620e-04
2.158871e-05
3.362309e-04
5.050400e-04
4.818023e-04
4.609868e-04
4.520409e-04
4.439885e-04
4.363040e-04
4.278627e-04
4.197158e-04
4.117824e-04
4.115265e-04
4.185240e-04
4.301211e-04
4.554930e-04
4.761684e-04
4.774980e-04
4.468328e-04
3.800807e-05
3.725154e-04
5.876362e-04
5.671889e-04
5.485361e-04
5.425547e-04
5.371257e-04
5.320635e-04
5.271933e-04
5.223616e-04
5.182680e-04
5.170705e-04
5.221851e-04
5.288682e-04
5.451559e-04
5.599974e-04
5.612159e-04
5.385731e-04
6.144157e-05
4.123857e-04
6.623992e-04
6.434813e-04
6.279282e-04
6.215389e-04
6.160769e-04
6.111900e-04
6.065376e-04
6.022875e-04
5.988656e-04
5.979042e-04
6.017463e-04
6.075250e-04
6.221874e-04
6.340161e-04
6.341786e-04
6.150657e-04
8.943835e-05
4.561703e-04
7.121830e-04
6.934736e-04
6.797886e-04
6.748020e-04
6.706322e-04
6.668052e-04
6.634904e-04
6.607831e-04
6.586192e-04
6.578296e-04
6.606645e-04
6.636705e-04
6.745687e-04
6.823745e-04
6.828845e-04
6.680540e-04
1.210154e-04
5.164899e-04
7.464303e-04
7.303935e-04
7.165718e-04
7.114961e-04
7.078508e-04
7.047599e-04
7.019305e-04
6.995268e-04
6.976542e-04
6.967389e-04
6.991193e-04
7.023672e-04
7.106423e-04
7.161625e-04
7.157976e-04
7.046377e-04
1.488648e-04
5.854403e-04
7.765543e-04
7.533771e-04
7.402244e-04
7.345039e-04
7.300500e-04
7.261757e-04
7.227741e-04
7.199850e-04
7.178302e-04
7.168191e-04
7.188176e-04
7.234060e-04
7.329251e-04
7.395780e-04
7.394048e-04
7.272767e-04
1.736370e-04
6.389163e-04
7.942832e-04
7.731585e-04
7.611071e-04
7.558661e-04
7.516912e-04
7.479008e-04
7.440559e-04
7.407197e-04
7.379706e-04
7.363370e-04
7.384973e-04
7.441054e-04
7.542333e-04
7.594745e-04
7.596053e-04
7.484463e-04
1.927617e-04
6.802489e-04
8.043138e-04
7.864071e-04
7.750967e-04
7.703458e-04
7.668148e-04
7.635045e-04
7.604613e-04
7.578371e-04
7.555641e-04
7.544263e-04
7.571934e-04
7.612202e-04
7.687780e-04
7.726965e-04
7.724908e-04
7.628202e-04
2.027704e-04
7.119101e-04
8.103694e-04
7.949013e-04
7.854012e-04
7.812150e-04
7.779744e-04
7.747943e-04
7.716814e-04
7.688535e-04
7.663824e-04
7.653364e-04
7.682229e-04
7.727225e-04
7.799708e-04
7.832066e-04
7.831207e-04
7.738930e-04
2.088119e-04
7.391035e-04
8.170486e-04
8.020870e-04
7.944795e-04
7.903942e-04
7.870370e-04
7.839201e-04
7.809014e-04
7.781486e-04
7.758445e-04
7.748755e-04
7.779591e-04
7.822111e-04
7.896325e-04
7.922134e-04
7.924715e-04
7.834452e-04
2.134928e-04
7.583371e-04
8.232487e-04
8.074119e-04
7.995564e-04
7.965882e-04
7.947213e-04
7.931180e-04
7.904394e-04
7.876356e-04
7.853230e-04
7.843606e-04
7.875816e-04
7.923377e-04
7.960632e-04
7.966999e-04
7.968953e-04
7.910703e-04
2.184240e-04
7.752789e-04
8.284318e-04
8.118306e-04
8.039492e-04
8.017437e-04
8.001069e-04
7.983113e-04
7.965552e-04
7.949800e-04
7.937270e-04
7.936785e-04
7.964711e-04
7.981877e-04
8.017554e-04
8.019194e-04
8.022535e-04
7.969278e-04
2.297567e-04
7.891615e-04
8.356513e-04
8.180686e-04
8.100537e-04
8.076540e-04
8.061614e-04
8.048622e-04
8.036291e-04
8.024642e-04
8.015562e-04
8.015375e-04
8.042667e-04
8.054267e-04
8.087454e-04
8.099749e-04
8.104713e-04
8.042644e-04
2.497290e-04
8.012397e-04
8.423455e-04
8.282110e-04
8.200495e-04
8.174506e-04
8.157008e-04
8.141355e-04
8.127977e-04
8.116583e-04
8.108232e-04
8.110260e-04
8.136543e-04
8.153310e-04
8.198978e-04
8.224932e-04
8.231541e-04
8.152977e-04
2.617380e-04
8.040523e-04
8.486154e-04
8.384667e-04
8.316318e-04
8.288425e-04
8.267443e-04
8.248357e-04
8.230147e-04
8.214468e-04
8.204421e-04
8.206519e-04
8.234995e-04
8.266544e-04
8.315669e-04
8.320138e-04
8.321220e-04
8.254906e-04
2.502593e-04
8.007541e-04
8.442961e-04
8.364930e-04
8.291464e-04
8.271532e-04
8.255642e-04
8.240443e-04
8.225124e-04
8.210164e-04
8.200205e-04
8.203521e-04
8.232864e-04
8.260427e-04
8.292378e-04
8.289924e-04
8.277225e-04
8.210474e-04
2.188505e-04
7.810547e-04
8.318006e-04
8.227582e-04
8.164122e-04
8.140914e-04
8.123989e-04
8.107495e-04
8.092084e-04
8.078155e-04
8.068959e-04
8.073855e-04
8.108651e-04
8.126033e-04
8.169257e-04
8.163881e-04
8.116815e-04
8.132206e-04
3.415798e-04
7.087182e-04
8.299037e-04
8.243444e-04
8.181621e-04
8.160476e-04
8.146869e-04
8.132571e-04
8.117577e-04
8.102967e-04
8.094510e-04
8.101040e-04
8.132876e-04
8.132782e-04
8.154352e-04
8.145699e-04
8.183001e-04
8.216966e-04
2.247019e-04
6.200485e-04
8.018809e-04
8.089524e-04
8.043137e-04
8.016651e-04
7.993106e-04
7.970977e-04
7.946609e-04
7.920192e-04
7.900864e-04
7.908313e-04
7.962347e-04
7.984357e-04
8.007305e-04
7.994744e-04
7.964634e-04
7.974132e-04
1.964027e-04
5.973861e-04
7.943431e-04
8.033155e-04
7.984323e-04
7.957192e-04
7.939099e-04
7.919956e-04
7.892274e-04
7.865534e-04
7.845642e-04
7.853417e-04
7.912984e-04
7.928563e-04
7.951492e-04
7.931152e-04
7.884666e-04
7.885461e-04
1.903556e-04
6.120626e-04
7.970609e-04
8.050722e-04
8.001222e-04
7.975544e-04
7.956313e-04
7.939110e-04
7.922337e-04
7.901123e-04
7.883690e-04
7.891826e-04
7.947879e-04
7.948411e-04
7.971795e-04
7.947425e-04
7.925015e-04
7.908833e-04
2.045974e-04
6.314192e-04
8.026111e-04
8.081703e-04
8.033155e-04
8.015614e-04
7.999332e-04
7.981342e-04
7.964343e-04
7.947039e-04
7.935456e-04
7.944489e-04
7.988095e-04
7.987045e-04
8.000199e-04
7.975657e-04
7.958645e-04
7.960460e-04
2.490443e-04
6.794640e-04
8.136648e-04
8.182612e-04
8.118639e-04
8.099839e-04
8.085108e-04
8.068821e-04
8.048138e-04
8.023079e-04
8.000960e-04
8.005768e-04
8.048725e-04
8.043475e-04
8.053810e-04
8.028360e-04
8.009320e-04
8.026266e-04
4.506719e-04
7.303476e-04
8.382378e-04
8.339477e-04
8.277007e-04
8.254305e-04
8.235927e-04
8.206329e-04
8.137898e-04
8.049373e-04
7.963954e-04
7.936902e-04
7.979044e-04
8.000215e-04
8.042008e-04
7.996396e-04
7.956830e-04
8.005529e-04
2.929237e-04
5.867626e-04
8.063322e-04
7.921608e-04
7.724341e-04
7.680897e-04
7.632947e-04
7.548732e-04
7.351012e-04
7.065672e-04
6.687471e-04
6.407774e-04
6.424093e-04
6.572923e-04
6.707831e-04
6.620740e-04
6.380100e-04
6.231540e-04
-5.634197e-04
2.801259e-04
4.614280e-04
2.704020e-04
2.260667e-04
2.177542e-04
2.139680e-04
2.068521e-04
2.063583e-04
2.347000e-04
2.203078e-04
1.990642e-04
1.848838e-04
2.004140e-04
2.028353e-04
2.175236e-04
1.923166e-04
2.152263e-04
-3.452789e-04
3.674656e-04
5.400742e-04
5.169387e-04
5.188799e-04
5.215668e-04
5.242211e-04
5.267394e-04
5.292756e-04
5.317706e-04
5.343143e-04
5.369071e-04
5.395469e-04
5.422351e-04
5.449527e-04
5.474909e-04
5.500149e-04
5.525567e-04
5.550024e-04
5.574778e-04
5.599681e-04
5.624366e-04
5.648950e-04
5.673253e-04
5.697392e-04
5.721538e-04
5.745870e-04
5.770256e-04
5.794912e-04
5.819478e-04
5.843542e-04
5.868196e-04
5.893419e-04
5.918604e-04
5.943038e-04
5.967126e-04
5.991103e-04
6.012441e-04
6.032740e-04
6.052791e-04
6.074284e-04
6.098563e-04
6.122612e-04
6.147679e-04
6.172727e-04
6.199389e-04
6.227943e-04
6.258806e-04
6.289006e-04
6.319144e-04
6.349530e-04
6.380148e-04
6.411226e-04
6.440218e-04
6.468338e-04
6.496338e-04
6.524438e-04
6.553381e-04
6.582918e-04
6.611908e-04
6.640660e-04
6.669746e-04
6.697792e-04
6.726467e-04
6.757342e-04
6.789845e-04
6.825061e-04
6.863119e-04
6.902755e-04
6.941308e-04
6.971127e-04
6.996646e-04
7.020066e-04
7.045392e-04
7.071754e-04
7.096731e-04
7.119470e-04
7.139616e-04
7.156687e-04
7.172570e-04
7.188248e-04
7.202905e-04
7.212886e-04
7.222167e-04
7.232186e-04
7.244492e-04
7.254853e-04
7.263867e-04
7.273258e-04
7.282683e-04
7.295776e-04
7.309509e-04
7.323270e-04
7.336184e-04
7.349663e-04
7.367171e-04
7.387288e-04
7.409616e-04
7.434926e-04
7.458931e-04
7.480506e-04
7.502073e-04
7.515741e-04
7.527654e-04
7.543119e-04
7.570277e-04
7.598536e-04
7.628160e-04
7.660242e-04
7.693074e-04
7.728528e-04
7.768748e-04
7.810104e-04
7.855288e-04
7.897607e-04
7.936815e-04
7.977881e-04
8.016303e-04
8.053538e-04
8.092906e-04
8.133912e-04
8.168946e-04
8.201543e-04
8.237905e-04
8.274622e-04
8.309662e-04
8.346429e-04
8.384132e-04
8.418546e-04
8.445825e-04
8.464087e-04
8.471904e-04
8.487896e-04
8.504660e-04
8.522663e-04
8.533876e-04
8.542720e-04
8.547683e-04
8.555495e-04
8.564968e-04
8.576158e-04
8.585391e-04
8.591908e-04
8.586174e-04
8.559318e-04
8.519032e-04
8.460118e-04
8.383768e-04
8.299786e-04
8.217392e-04
8.128269e-04
8.022805e-04
7.902231e-04
7.779954e-04
7.663232e-04
7.548435e-04
7.429983e-04
7.300198e-04
7.165119e-04
7.012665e-04
6.848555e-04
6.685881e-04
6.523987e-04
6.349988e-04
6.175602e-04
6.002839e-04
5.831544e-04
5.656409e-04
5.479625e-04
5.306565e-04
5.161589e-04
5.051860e-04
4.984501e-04
4.957242e-04
5.584629e-04
6.716322e-04
7.601867e-04
7.644621e-04
7.660054e-04
8.011676e-04
3.667554e-04
3.275757e-04
3.571897e-04
3.797007e-04
3.819076e-04
3.842788e-04
3.872181e-04
3.901597e-04
3.930826e-04
3.960395e-04
3.989912e-04
4.019621e-04
4.049918e-04
4.080482e-04
4.110383e-04
4.140466e-04
4.170872e-04
4.201605e-04
4.232808e-04
4.266854e-04
4.301868e-04
4.337326e-04
4.373014e-04
4.410452e-04
4.448410e-04
4.486155e-04
4.523931e-04
4.561983e-04
4.599519e-04
4.636351e-04
4.672979e-04
4.709429e-04
4.746243e-04
4.782376e-04
4.817875e-04
4.852922e-04
4.888443e-04
4.923929e-04
4.958683e-04
4.993103e-04
5.027734e-04
5.062546e-04
5.097188e-04
5.131839e-04
5.166414e-04
5.200296e-04
5.231750e-04
5.262816e-04
5.294111e-04
5.326149e-04
5.357149e-04
5.387711e-04
5.419863e-04
5.451324e-04
5.482938e-04
5.514338e-04
5.545929e-04
5.578764e-04
5.616078e-04
5.654253e-04
5.692370e-04
5.731020e-04
5.771520e-04
5.811884e-04
5.853168e-04
5.897186e-04
5.943188e-04
5.989765e-04
6.036558e-04
6.082965e-04
6.125609e-04
6.170873e-04
6.216240e-04
6.261368e-04
6.307496e-04
6.353238e-04
6.401565e-04
6.448875e-04
6.496460e-04
6.543843e-04
6.592948e-04
6.643578e-04
6.696904e-04
6.755763e-04
6.814604e-04
6.877155e-04
6.941770e-04
7.011044e-04
7.081114e-04
7.151064e-04
7.220365e-04
7.292083e-04
7.367032e-04
7.441774e-04
7.510873e-04
7.582753e-04
7.655853e-04
7.729271e-04
7.804404e-04
7.886648e-04
7.971679e-04
8.059951e-04
8.149586e-04
8.238291e-04
8.330979e-04
8.423385e-04
8.515771e-04
8.611456e-04
8.708858e-04
8.799528e-04
8.888013e-04
8.971890e-04
9.049098e-04
9.127482e-04
9.207420e-04
9.292362e-04
9.379782e-04
9.463873e-04
9.548655e-04
9.637665e-04
9.728695e-04
9.831854e-04
9.935337e-04
1.002742e-03
1.011374e-03
1.019777e-03
1.028956e-03
1.038890e-03
1.048719e-03
1.058068e-03
1.067372e-03
1.077032e-03
1.087569e-03
1.097858e-03
1.107923e-03
1.118342e-03
1.128399e-03
1.138139e-03
1.147300e-03
1.156846e-03
1.166893e-03
1.176608e-03
1.184690e-03
1.192988e-03
1.201283e-03
1.208434e-03
1.214635e-03
1.220670e-03
1.224248e-03
1.226168e-03
1.227142e-03
1.227405e-03
1.226924e-03
1.225946e-03
1.224659e-03
1.223843e-03
1.222904e-03
1.221103e-03
1.217593e-03
1.213144e-03
1.209506e-03
1.206281e-03
1.203343e-03
1.200128e-03
1.197949e-03
1.197629e-03
1.198968e-03
1.199556e-03
1.197883e-03
1.195256e-03
1.192009e-03
1.187023e-03
1.192001e-03
1.220136e-03
1.198155e-03
1.114503e-03
9.865294e-04
8.620365e-04
8.552363e-04
8.470751e-04
5.719554e-04
3.855338e-04
4.477687e-04
4.496967e-04
4.487754e-04
4.511602e-04
4.540834e-04
4.570851e-04
4.601684e-04
4.636042e-04
4.670971e-04
4.706209e-04
4.742642e-04
4.778830e-04
4.814819e-04
4.851387e-04
4.888220e-04
4.925159e-04
4.962405e-04
4.999930e-04
5.037193e-04
5.072970e-04
5.109249e-04
5.146027e-04
5.183349e-04
5.221196e-04
5.260998e-04
5.303200e-04
5.346027e-04
5.388717e-04
5.429944e-04
5.471286e-04
5.512869e-04
5.554944e-04
5.598077e-04
5.641542e-04
5.684152e-04
5.726848e-04
5.770678e-04
5.814089e-04
5.857496e-04
5.901337e-04
5.945623e-04
5.990541e-04
6.036976e-04
6.083396e-04
6.129827e-04
6.176257e-04
6.222575e-04
6.269307e-04
6.317023e-04
6.367543e-04
6.420798e-04
6.473091e-04
6.526098e-04
6.579885e-04
6.635868e-04
6.690280e-04
6.743315e-04
6.798327e-04
6.854828e-04
6.915759e-04
6.981083e-04
7.051838e-04
7.123420e-04
7.197331e-04
7.271773e-04
7.344228e-04
7.417814e-04
7.490863e-04
7.562144e-04
7.634802e-04
7.708277e-04
7.782274e-04
7.855535e-04
7.930260e-04
8.005157e-04
8.080869e-04
8.156377e-04
8.235922e-04
8.317071e-04
8.399897e-04
8.485397e-04
8.571875e-04
8.658501e-04
8.747506e-04
8.843687e-04
8.946218e-04
9.049326e-04
9.157172e-04
9.267173e-04
9.381009e-04
9.495108e-04
9.607395e-04
9.720102e-04
9.838447e-04
9.961020e-04
1.008565e-03
1.021690e-03
1.036139e-03
1.052139e-03
1.068433e-03
1.084797e-03
1.101152e-03
1.116529e-03
1.131733e-03
1.146795e-03
1.162389e-03
1.178004e-03
1.193913e-03
1.209544e-03
1.225490e-03
1.242107e-03
1.258394e-03
1.274546e-03
1.290463e-03
1.305958e-03
1.321578e-03
1.337462e-03
1.353605e-03
1.369296e-03
1.384586e-03
1.400293e-03
1.415785e-03
1.431674e-03
1.447665e-03
1.463432e-03
1.479578e-03
1.496302e-03
1.513032e-03
1.529970e-03
1.546626e-03
1.562875e-03
1.579141e-03
1.595032e-03
1.611273e-03
1.627943e-03
1.645655e-03
1.663318e-03
1.680226e-03
1.696581e-03
1.711665e-03
1.726365e-03
1.740936e-03
1.755470e-03
1.768710e-03
1.780420e-03
1.792521e-03
1.805153e-03
1.817681e-03
1.829028e-03
1.839845e-03
1.851283e-03
1.864343e-03
1.877723e-03
1.890140e-03
1.902199e-03
1.913979e-03
1.926030e-03
1.938567e-03
1.951483e-03
1.963849e-03
1.974817e-03
1.984162e-03
1.993384e-03
2.002951e-03
2.010641e-03
2.017671e-03
2.024407e-03
2.030879e-03
2.035097e-03
2.037263e-03
2.039578e-03
2.031883e-03
1.939598e-03
1.684475e-03
1.350372e-03
1.122695e-03
1.076341e-03
1.163662e-03
5.429650e-04
4.198137e-04
4.663207e-04
4.678089e-04
4.686401e-04
4.712934e-04
4.743522e-04
4.775454e-04
4.810386e-04
4.846017e-04
4.881700e-04
4.917072e-04
4.952826e-04
4.989384e-04
5.026166e-04
5.062466e-04
5.099136e-04
5.135778e-04
5.172786e-04
5.209906e-04
5.246967e-04
5.283843e-04
5.320630e-04
5.358017e-04
5.395376e-04
5.433780e-04
5.472240e-04
5.511945e-04
5.552623e-04
5.593755e-04
5.636334e-04
5.681601e-04
5.727147e-04
5.773712e-04
5.822967e-04
5.874052e-04
5.928099e-04
5.983030e-04
6.039218e-04
6.099154e-04
6.161740e-04
6.224107e-04
6.284076e-04
6.344518e-04
6.406088e-04
6.470220e-04
6.534963e-04
6.601293e-04
6.669583e-04
6.740828e-04
6.813078e-04
6.885460e-04
6.958649e-04
7.033992e-04
7.109745e-04
7.185953e-04
7.262135e-04
7.339379e-04
7.418248e-04
7.496745e-04
7.575366e-04
7.655589e-04
7.738578e-04
7.822835e-04
7.908367e-04
7.996773e-04
8.086308e-04
8.175702e-04
8.267481e-04
8.361148e-04
8.454862e-04
8.549449e-04
8.644551e-04
8.735277e-04
8.827289e-04
8.921218e-04
9.020351e-04
9.120003e-04
9.220096e-04
9.319943e-04
9.418413e-04
9.516857e-04
9.618796e-04
9.727078e-04
9.838254e-04
9.950112e-04
1.006695e-03
1.019320e-03
1.032839e-03
1.047189e-03
1.062864e-03
1.078516e-03
1.094815e-03
1.111501e-03
1.129146e-03
1.146898e-03
1.165391e-03
1.183551e-03
1.202050e-03
1.221133e-03
1.239702e-03
1.258243e-03
1.276061e-03
1.293749e-03
1.311648e-03
1.330013e-03
1.348121e-03
1.366522e-03
1.385261e-03
1.404942e-03
1.425301e-03
1.445014e-03
1.465044e-03
1.485554e-03
1.506081e-03
1.526722e-03
1.547568e-03
1.568386e-03
1.589128e-03
1.609735e-03
1.630325e-03
1.650961e-03
1.671624e-03
1.691912e-03
1.712452e-03
1.733145e-03
1.753432e-03
1.772882e-03
1.792673e-03
1.813636e-03
1.834759e-03
1.856936e-03
1.879605e-03
1.901801e-03
1.922977e-03
1.944266e-03
1.966714e-03
1.989734e-03
2.012343e-03
2.034530e-03
2.055987e-03
2.075981e-03
2.094094e-03
2.112611e-03
2.131519e-03
2.150089e-03
2.169078e-03
2.187676e-03
2.207056e-03
2.227953e-03
2.249035e-03
2.271752e-03
2.294438e-03
2.316185e-03
2.337571e-03
2.358665e-03
2.380252e-03
2.400949e-03
2.422541e-03
2.444075e-03
2.466562e-03
2.488640e-03
2.508305e-03
2.527129e-03
2.545013e-03
2.559095e-03
2.573007e-03
2.587302e-03
2.601995e-03
2.617410e-03
2.632232e-03
2.643185e-03
2.639489e-03
2.586118e-03
2.428266e-03
2.102541e-03
1.653877e-03
1.328275e-03
1.223286e-03
1.353588e-03
5.277634e-04
4.321607e-04
4.779208e-04
4.821736e-04
4.825900e-04
4.849895e-04
4.878966e-04
4.909858e-04
4.940695e-04
4.971769e-04
5.002928e-04
5.034363e-04
5.066047e-04
5.097736e-04
5.131228e-04
5.165398e-04
5.199981e-04
5.234864e-04
5.272749e-04
5.311389e-04
5.349527e-04
5.388328e-04
5.428627e-04
5.473327e-04
5.520862e-04
5.569816e-04
5.619431e-04
5.669717e-04
5.720760e-04
5.773558e-04
5.828910e-04
5.885226e-04
5.942203e-04
6.000077e-04
6.059255e-04
6.119592e-04
6.182376e-04
6.242646e-04
6.302396e-04
6.363962e-04
6.426345e-04
6.490211e-04
6.555251e-04
6.621278e-04
6.691013e-04
6.764474e-04
6.837185e-04
6.911356e-04
6.986712e-04
7.063027e-04
7.139801e-04
7.218528e-04
7.299925e-04
7.382403e-04
7.464934e-04
7.547106e-04
7.632375e-04
7.717147e-04
7.801849e-04
7.887356e-04
7.976201e-04
8.064822e-04
8.154772e-04
8.247941e-04
8.341639e-04
8.435679e-04
8.529871e-04
8.624998e-04
8.722755e-04
8.819698e-04
8.911568e-04
9.003817e-04
9.097104e-04
9.199024e-04
9.304742e-04
9.411690e-04
9.518302e-04
9.623369e-04
9.730480e-04
9.844305e-04
9.964828e-04
1.009159e-03
1.022326e-03
1.035833e-03
1.049766e-03
1.064675e-03
1.079891e-03
1.095612e-03
1.112102e-03
1.130047e-03
1.148697e-03
1.167392e-03
1.186001e-03
1.205321e-03
1.225100e-03
1.245032e-03
1.264621e-03
1.284176e-03
1.303354e-03
1.322712e-03
1.342239e-03
1.361473e-03
1.380885e-03
1.400253e-03
1.420122e-03
1.440797e-03
1.461714e-03
1.482465e-03
1.503971e-03
1.525787e-03
1.547949e-03
1.570581e-03
1.592786e-03
1.614989e-03
1.636818e-03
1.658504e-03
1.680281e-03
1.702159e-03
1.723958e-03
1.746289e-03
1.768388e-03
1.790944e-03
1.813666e-03
1.836845e-03
1.860538e-03
1.884675e-03
1.909033e-03
1.933341e-03
1.956680e-03
1.979266e-03
2.001246e-03
2.023022e-03
2.044877e-03
2.068129e-03
2.091509e-03
2.114502e-03
2.137599e-03
2.160859e-03
2.183384e-03
2.205737e-03
2.226404e-03
2.245151e-03
2.263136e-03
2.281572e-03
2.300088e-03
2.319482e-03
2.339500e-03
2.361556e-03
2.385505e-03
2.410031e-03
2.434696e-03
2.461086e-03
2.489474e-03
2.519048e-03
2.547562e-03
2.576472e-03
2.607020e-03
2.638670e-03
2.671708e-03
2.704167e-03
2.736259e-03
2.764162e-03
2.789124e-03
2.811425e-03
2.831625e-03
2.851831e-03
2.869620e-03
2.887702e-03
2.907495e-03
2.928852e-03
2.947780e-03
2.963968e-03
2.964722e-03
2.906292e-03
2.688606e-03
2.294958e-03
1.817046e-03
1.462666e-03
1.322155e-03
1.512684e-03
5.114303e-04
4.435433e-04
4.936022e-04
4.949898e-04
4.952202e-04
4.977982e-04
5.007486e-04
5.037545e-04
5.068478e-04
5.099102e-04
5.131108e-04
5.164582e-04
5.197956e-04
5.231741e-04
5.266746e-04
5.303276e-04
5.340930e-04
5.378679e-04
5.417999e-04
5.460188e-04
5.504111e-04
5.549083e-04
5.595238e-04
5.642097e-04
5.690836e-04
5.743502e-04
5.797203e-04
5.851576e-04
5.907146e-04
5.965521e-04
6.025216e-04
6.085824e-04
6.147552e-04
6.210690e-04
6.274934e-04
6.340176e-04
6.405345e-04
6.468646e-04
6.529966e-04
6.593758e-04
6.662494e-04
6.730974e-04
6.800576e-04
6.872423e-04
6.946941e-04
7.022520e-04
7.098664e-04
7.174873e-04
7.251827e-04
7.331655e-04
7.410520e-04
7.489862e-04
7.570323e-04
7.651019e-04
7.731014e-04
7.812051e-04
7.893628e-04
7.975014e-04
8.060931e-04
8.147278e-04
8.234979e-04
8.324760e-04
8.416226e-04
8.509227e-04
8.603528e-04
8.699244e-04
8.798947e-04
8.900750e-04
9.001582e-04
9.101825e-04
9.206688e-04
9.317083e-04
9.429288e-04
9.549338e-04
9.673057e-04
9.801342e-04
9.937209e-04
1.007273e-03
1.020788e-03
1.034448e-03
1.048487e-03
1.063281e-03
1.078668e-03
1.094209e-03
1.110659e-03
1.127518e-03
1.145268e-03
1.163642e-03
1.183068e-03
1.202867e-03
1.223085e-03
1.243033e-03
1.262999e-03
1.282911e-03
1.303106e-03
1.322684e-03
1.342633e-03
1.362673e-03
1.383129e-03
1.403521e-03
1.423968e-03
1.444770e-03
1.465832e-03
1.487236e-03
1.509001e-03
1.530475e-03
1.552307e-03
1.574494e-03
1.596299e-03
1.618670e-03
1.641303e-03
1.664067e-03
1.687406e-03
1.710144e-03
1.732447e-03
1.755216e-03
1.778169e-03
1.801251e-03
1.824604e-03
1.848304e-03
1.872464e-03
1.899078e-03
1.925326e-03
1.949826e-03
1.973952e-03
1.998461e-03
2.022289e-03
2.045154e-03
2.068151e-03
2.090872e-03
2.113235e-03
2.135060e-03
2.156870e-03
2.178527e-03
2.200783e-03
2.223081e-03
2.247240e-03
2.272491e-03
2.297409e-03
2.321846e-03
2.346420e-03
2.371400e-03
2.395227e-03
2.418839e-03
2.443083e-03
2.468472e-03
2.493148e-03
2.518012e-03
2.543689e-03
2.571445e-03
2.601327e-03
2.632905e-03
2.666012e-03
2.699865e-03
2.735692e-03
2.772576e-03
2.808936e-03
2.845848e-03
2.885180e-03
2.922391e-03
2.954968e-03
2.985509e-03
3.012832e-03
3.034718e-03
3.053900e-03
3.070507e-03
3.087840e-03
3.106341e-03
3.127701e-03
3.148304e-03
3.166786e-03
3.181543e-03
3.181331e-03
3.117164e-03
2.885561e-03
2.434068e-03
1.927801e-03
1.547167e-03
1.400550e-03
1.632890e-03
4.843689e-04
4.501153e-04
5.066197e-04
5.111689e-04
5.125935e-04
5.155015e-04
5.186678e-04
5.219333e-04
5.253008e-04
5.287812e-04
5.323509e-04
5.360172e-04
5.397088e-04
5.434716e-04
5.473301e-04
5.513524e-04
5.554272e-04
5.595454e-04
5.637114e-04
5.680759e-04
5.726207e-04
5.774940e-04
5.825573e-04
5.878723e-04
5.933266e-04
5.988899e-04
6.045092e-04
6.102456e-04
6.162048e-04
6.222026e-04
6.281754e-04
6.341136e-04
6.400992e-04
6.461219e-04
6.523076e-04
6.585187e-04
6.648482e-04
6.713547e-04
6.779623e-04
6.845079e-04
6.908875e-04
6.974235e-04
7.042427e-04
7.112973e-04
7.184728e-04
7.258189e-04
7.332521e-04
7.407790e-04
7.484055e-04
7.561276e-04
7.640600e-04
7.721496e-04
7.804309e-04
7.888734e-04
7.974028e-04
8.062783e-04
8.153444e-04
8.246181e-04
8.338382e-04
8.432210e-04
8.530075e-04
8.628422e-04
8.724879e-04
8.821590e-04
8.923019e-04
9.026153e-04
9.129089e-04
9.230872e-04
9.340303e-04
9.458898e-04
9.587047e-04
9.716011e-04
9.845477e-04
9.976338e-04
1.010655e-03
1.024134e-03
1.038512e-03
1.053757e-03
1.068996e-03
1.084944e-03
1.101387e-03
1.118171e-03
1.135185e-03
1.153172e-03
1.172163e-03
1.191412e-03
1.210779e-03
1.230275e-03
1.249728e-03
1.269282e-03
1.289327e-03
1.309652e-03
1.328858e-03
1.348155e-03
1.367672e-03
1.388172e-03
1.409439e-03
1.430678e-03
1.451783e-03
1.472641e-03
1.494483e-03
1.516427e-03
1.538517e-03
1.560413e-03
1.582073e-03
1.603548e-03
1.625475e-03
1.648245e-03
1.672015e-03
1.695826e-03
1.720044e-03
1.744543e-03
1.768845e-03
1.792006e-03
1.815377e-03
1.838760e-03
1.862029e-03
1.886703e-03
1.913160e-03
1.939219e-03
1.965247e-03
1.991949e-03
2.019053e-03
2.044961e-03
2.069817e-03
2.093976e-03
2.117865e-03
2.140193e-03
2.162417e-03
2.185768e-03
2.208269e-03
2.231958e-03
2.257030e-03
2.283264e-03
2.309384e-03
2.336203e-03
2.362672e-03
2.390272e-03
2.417947e-03
2.445586e-03
2.474780e-03
2.504465e-03
2.534015e-03
2.563576e-03
2.595373e-03
2.627071e-03
2.657070e-03
2.686615e-03
2.717890e-03
2.749351e-03
2.781366e-03
2.815021e-03
2.848506e-03
2.881138e-03
2.913856e-03
2.952465e-03
2.993446e-03
3.033138e-03
3.072042e-03
3.110104e-03
3.144905e-03
3.173590e-03
3.197969e-03
3.216990e-03
3.232712e-03
3.246947e-03
3.262891e-03
3.280984e-03
3.300925e-03
3.321337e-03
3.338850e-03
3.352566e-03
3.346715e-03
3.269986e-03
3.050452e-03
2.577568e-03
2.028790e-03
1.626343e-03
1.482994e-03
1.757119e-03
4.330752e-04
4.503706e-04
5.279088e-04
5.316924e-04
5.330273e-04
5.364160e-04
5.399132e-04
5.435249e-04
5.473135e-04
5.511299e-04
5.549830e-04
5.588019e-04
5.627136e-04
5.666518e-04
5.708100e-04
5.750485e-04
5.793489e-04
5.836342e-04
5.880723e-04
5.930349e-04
5.980231e-04
6.030516e-04
6.081341e-04
6.132815e-04
6.184833e-04
6.238133e-04
6.293302e-04
6.349266e-04
6.405576e-04
6.460782e-04
6.515537e-04
6.573405e-04
6.631981e-04
6.691317e-04
6.752382e-04
6.817304e-04
6.884261e-04
6.952164e-04
7.023275e-04
7.096531e-04
7.170922e-04
7.246141e-04
7.322971e-04
7.398814e-04
7.472511e-04
7.546708e-04
7.622291e-04
7.700698e-04
7.780522e-04
7.861445e-04
7.941792e-04
8.022308e-04
8.105078e-04
8.192610e-04
8.286611e-04
8.388604e-04
8.491821e-04
8.597251e-04
8.701851e-04
8.806453e-04
8.910698e-04
9.014822e-04
9.121858e-04
9.232684e-04
9.343177e-04
9.455375e-04
9.563845e-04
9.682178e-04
9.802815e-04
9.925935e-04
1.004954e-03
1.017323e-03
1.030305e-03
1.043721e-03
1.058469e-03
1.073720e-03
1.089188e-03
1.105075e-03
1.121306e-03
1.138006e-03
1.155004e-03
1.172524e-03
1.190408e-03
1.208630e-03
1.227359e-03
1.246758e-03
1.266647e-03
1.286490e-03
1.306057e-03
1.324402e-03
1.343462e-03
1.362310e-03
1.382270e-03
1.402914e-03
1.424041e-03
1.445412e-03
1.467048e-03
1.488690e-03
1.510229e-03
1.531835e-03
1.553408e-03
1.576061e-03
1.598513e-03
1.621143e-03
1.644092e-03
1.667302e-03
1.690456e-03
1.713472e-03
1.737454e-03
1.762420e-03
1.786938e-03
1.811392e-03
1.836394e-03
1.861543e-03
1.886097e-03
1.913329e-03
1.940942e-03
1.967630e-03
1.994124e-03
2.020586e-03
2.047090e-03
2.074187e-03
2.102281e-03
2.129625e-03
2.156899e-03
2.183587e-03
2.209168e-03
2.234269e-03
2.259485e-03
2.284931e-03
2.310638e-03
2.336775e-03
2.362375e-03
2.387776e-03
2.413183e-03
2.439817e-03
2.468074e-03
2.496977e-03
2.525771e-03
2.554840e-03
2.586457e-03
2.620929e-03
2.655967e-03
2.692028e-03
2.727698e-03
2.762283e-03
2.794406e-03
2.825770e-03
2.856284e-03
2.886228e-03
2.916760e-03
2.948760e-03
2.982106e-03
3.014878e-03
3.049374e-03
3.085972e-03
3.125274e-03
3.166250e-03
3.207362e-03
3.245628e-03
3.281359e-03
3.312763e-03
3.339391e-03
3.361174e-03
3.379790e-03
3.396944e-03
3.415537e-03
3.434725e-03
3.455925e-03
3.478282e-03
3.497712e-03
3.513403e-03
3.503644e-03
3.405196e-03
3.175180e-03
2.737331e-03
2.123082e-03
1.706144e-03
1.573980e-03
1.891857e-03
3.455762e-04
4.476225e-04
5.465902e-04
5.507767e-04
5.535758e-04
5.575619e-04
5.615323e-04
5.654424e-04
5.693466e-04
5.733151e-04
5.773120e-04
5.813663e-04
5.854031e-04
5.895386e-04
5.936989e-04
5.978855e-04
6.020214e-04
6.063412e-04
6.110468e-04
6.159531e-04
6.210207e-04
6.261628e-04
6.313422e-04
6.363722e-04
6.414403e-04
6.469226e-04
6.525231e-04
6.584800e-04
6.646050e-04
6.708036e-04
6.769663e-04
6.832637e-04
6.896874e-04
6.961510e-04
7.027328e-04
7.093514e-04
7.161008e-04
7.229493e-04
7.300252e-04
7.374787e-04
7.450304e-04
7.527319e-04
7.605272e-04
7.682818e-04
7.759996e-04
7.844122e-04
7.929812e-04
8.017205e-04
8.104723e-04
8.193454e-04
8.282983e-04
8.373126e-04
8.466106e-04
8.561558e-04
8.657120e-04
8.758453e-04
8.869119e-04
8.980838e-04
9.090048e-04
9.196253e-04
9.304492e-04
9.415303e-04
9.527535e-04
9.639781e-04
9.752391e-04
9.862332e-04
9.973358e-04
1.009115e-03
1.022202e-03
1.036375e-03
1.050785e-03
1.065422e-03
1.080422e-03
1.095851e-03
1.111211e-03
1.126727e-03
1.142469e-03
1.158824e-03
1.175667e-03
1.192645e-03
1.209768e-03
1.227027e-03
1.244715e-03
1.262958e-03
1.281726e-03
1.300246e-03
1.318759e-03
1.337405e-03
1.355675e-03
1.374375e-03
1.393493e-03
1.412322e-03
1.432700e-03
1.453519e-03
1.474118e-03
1.494930e-03
1.517182e-03
1.539953e-03
1.563270e-03
1.586832e-03
1.610358e-03
1.633264e-03
1.656147e-03
1.679408e-03
1.703540e-03
1.726912e-03
1.749901e-03
1.772872e-03
1.795378e-03
1.818015e-03
1.841840e-03
1.867099e-03
1.893501e-03
1.922868e-03
1.952193e-03
1.982169e-03
2.013126e-03
2.043331e-03
2.072758e-03
2.102554e-03
2.131808e-03
2.160612e-03
2.189136e-03
2.217326e-03
2.244751e-03
2.270516e-03
2.296245e-03
2.321658e-03
2.348169e-03
2.373765e-03
2.398995e-03
2.424740e-03
2.450846e-03
2.478343e-03
2.504441e-03
2.530377e-03
2.556553e-03
2.586271e-03
2.616750e-03
2.646466e-03
2.676451e-03
2.708416e-03
2.741169e-03
2.775670e-03
2.813256e-03
2.852082e-03
2.889449e-03
2.925488e-03
2.960556e-03
2.995776e-03
3.029862e-03
3.062503e-03
3.096061e-03
3.130005e-03
3.165943e-03
3.203313e-03
3.243034e-03
3.284868e-03
3.325063e-03
3.363439e-03
3.397683e-03
3.426871e-03
3.453386e-03
3.476764e-03
3.497610e-03
3.517114e-03
3.537539e-03
3.560426e-03
3.585314e-03
3.611879e-03
3.635818e-03
3.654976e-03
3.648331e-03
3.545708e-03
3.291090e-03
2.854285e-03
2.220527e-03
1.783090e-03
1.658199e-03
2.041547e-03
2.632307e-04
4.285211e-04
5.550516e-04
5.585408e-04
5.597590e-04
5.641179e-04
5.682467e-04
5.724359e-04
5.767061e-04
5.811679e-04
5.857926e-04
5.905233e-04
5.952953e-04
6.000969e-04
6.049020e-04
6.094446e-04
6.139955e-04
6.185682e-04
6.235531e-04
6.287199e-04
6.337798e-04
6.390027e-04
6.442593e-04
6.496200e-04
6.552474e-04
6.609948e-04
6.667234e-04
6.726613e-04
6.788488e-04
6.851554e-04
6.914342e-04
6.977083e-04
7.040094e-04
7.104059e-04
7.169607e-04
7.234571e-04
7.304827e-04
7.377922e-04
7.453014e-04
7.530725e-04
7.609993e-04
7.690197e-04
7.771593e-04
7.853142e-04
7.935411e-04
8.018100e-04
8.101256e-04
8.190980e-04
8.280968e-04
8.372681e-04
8.471192e-04
8.568255e-04
8.666671e-04
8.770466e-04
8.878539e-04
8.984987e-04
9.090072e-04
9.195497e-04
9.302277e-04
9.415245e-04
9.531564e-04
9.651839e-04
9.769799e-04
9.893153e-04
1.002899e-03
1.016574e-03
1.030360e-03
1.044998e-03
1.059672e-03
1.074568e-03
1.089861e-03
1.105259e-03
1.120827e-03
1.136305e-03
1.151955e-03
1.167879e-03
1.183676e-03
1.199438e-03
1.215504e-03
1.231793e-03