/*--------------------------------*- C++ -*----------------------------------*\
| =========                 |                                                 |
| \\      /  F ield         | OpenFOAM: The Open Source CFD Toolbox           |
|  \\    /   O peration     | Version:  v2406                                 |
|   \\  /    A nd           | Website:  www.openfoam.com                      |
|    \\/     M anipulation  |                                                 |
\*---------------------------------------------------------------------------*/
FoamFile
{
    version     2.0;
    format      ascii;
    class       volScalarField;
    location    "predicted";
    object      p;
}
// * * * * * * * * * * * * * * * * * * * * * * * * * * * * * * * * * * * * * //

dimensions      [0 2 -2 0 0 0 0];

internalField   nonuniform List<scalar>
49181
(
-6.253758e+00
-6.196910e+00
-6.332879e+00
-7.267940e+00
-7.409259e+00
-7.442900e+00
-7.465357e+00
-7.485305e+00
-7.500139e+00
-7.497358e+00
-7.502104e+00
-7.498618e+00
-7.495721e+00
-7.491615e+00
-7.440368e+00
-7.313828e+00
-7.379210e+00
-6.690491e+00
-6.141575e+00
-5.820090e+00
-6.061709e+00
-6.483436e+00
-6.606767e+00
-6.619530e+00
-6.629897e+00
-6.637671e+00
-6.621180e+00
-6.598902e+00
-6.582360e+00
-6.590486e+00
-6.583600e+00
-6.572114e+00
-6.561098e+00
-6.526980e+00
-6.393424e+00
-6.323470e+00
-6.204358e+00
-6.049102e+00
-6.287540e+00
-6.643991e+00
-6.764313e+00
-6.799790e+00
-6.827039e+00
-6.856147e+00
-6.883151e+00
-6.892603e+00
-6.912843e+00
-6.926103e+00
-6.902697e+00
-6.871157e+00
-6.817853e+00
-6.798552e+00
-6.791024e+00
-6.879675e+00
-6.966023e+00
-6.468166e+00
-6.610450e+00
-6.979393e+00
-7.102188e+00
-7.134515e+00
-7.161422e+00
-7.187426e+00
-7.215978e+00
-7.242978e+00
-7.274773e+00
-7.277172e+00
-7.250185e+00
-7.212365e+00
-7.159941e+00
-7.135999e+00
-7.138387e+00
-7.209337e+00
-6.985028e+00
-6.577534e+00
-6.678986e+00
-6.993939e+00
-7.104799e+00
-7.135811e+00
-7.160493e+00
-7.183354e+00
-7.206509e+00
-7.230184e+00
-7.253927e+00
-7.261347e+00
-7.232912e+00
-7.199262e+00
-7.146462e+00
-7.113302e+00
-7.111213e+00
-7.197441e+00
-6.902554e+00
-6.570144e+00
-6.618412e+00
-6.873215e+00
-6.980369e+00
-7.008572e+00
-7.029325e+00
-7.048403e+00
-7.066050e+00
-7.082499e+00
-7.097291e+00
-7.102154e+00
-7.073760e+00
-7.058055e+00
-7.018579e+00
-6.997661e+00
-6.995533e+00
-7.067840e+00
-6.794792e+00
-6.547698e+00
-6.550666e+00
-6.797767e+00
-6.889298e+00
-6.916698e+00
-6.936692e+00
-6.954093e+00
-6.970141e+00
-6.984567e+00
-6.996109e+00
-6.995947e+00
-6.971348e+00
-6.962676e+00
-6.930668e+00
-6.916430e+00
-6.916758e+00
-6.978468e+00
-6.682826e+00
-6.527968e+00
-6.519367e+00
-6.743218e+00
-6.828347e+00
-6.851128e+00
-6.866427e+00
-6.879953e+00
-6.892224e+00
-6.902980e+00
-6.911084e+00
-6.910571e+00
-6.889940e+00
-6.888157e+00
-6.860961e+00
-6.849332e+00
-6.846674e+00
-6.900970e+00
-6.549588e+00
-6.522961e+00
-6.499181e+00
-6.693738e+00
-6.767965e+00
-6.787433e+00
-6.799302e+00
-6.808857e+00
-6.818000e+00
-6.826800e+00
-6.832921e+00
-6.833135e+00
-6.817260e+00
-6.813187e+00
-6.794115e+00
-6.788611e+00
-6.787600e+00
-6.824819e+00
-6.410910e+00
-6.515970e+00
-6.467466e+00
-6.668829e+00
-6.733475e+00
-6.753813e+00
-6.767042e+00
-6.777718e+00
-6.786774e+00
-6.793953e+00
-6.799371e+00
-6.798831e+00
-6.785334e+00
-6.781194e+00
-6.761170e+00
-6.754284e+00
-6.751082e+00
-6.786288e+00
-6.281230e+00
-6.467732e+00
-6.454757e+00
-6.640414e+00
-6.700253e+00
-6.718759e+00
-6.731925e+00
-6.743073e+00
-6.753982e+00
-6.762756e+00
-6.769407e+00
-6.771052e+00
-6.757753e+00
-6.749896e+00
-6.724755e+00
-6.720234e+00
-6.715789e+00
-6.752124e+00
-6.177513e+00
-6.412672e+00
-6.462637e+00
-6.616417e+00
-6.668510e+00
-6.684817e+00
-6.695751e+00
-6.705548e+00
-6.714243e+00
-6.721268e+00
-6.726808e+00
-6.727259e+00
-6.712054e+00
-6.708674e+00
-6.690886e+00
-6.689701e+00
-6.687291e+00
-6.720296e+00
-6.105178e+00
-6.373217e+00
-6.463645e+00
-6.602693e+00
-6.644122e+00
-6.656968e+00
-6.666155e+00
-6.675647e+00
-6.685069e+00
-6.693660e+00
-6.700873e+00
-6.701613e+00
-6.685802e+00
-6.678942e+00
-6.661734e+00
-6.665354e+00
-6.662167e+00
-6.693503e+00
-6.055489e+00
-6.335955e+00
-6.451709e+00
-6.587258e+00
-6.623148e+00
-6.636064e+00
-6.646593e+00
-6.656088e+00
-6.665083e+00
-6.673291e+00
-6.679760e+00
-6.680043e+00
-6.662888e+00
-6.658309e+00
-6.640249e+00
-6.645244e+00
-6.641679e+00
-6.673928e+00
-6.002596e+00
-6.296606e+00
-6.429178e+00
-6.566548e+00
-6.610746e+00
-6.622345e+00
-6.627914e+00
-6.632514e+00
-6.641556e+00
-6.650636e+00
-6.657306e+00
-6.657595e+00
-6.639931e+00
-6.631896e+00
-6.627349e+00
-6.637931e+00
-6.635335e+00
-6.657712e+00
-5.948904e+00
-6.253641e+00
-6.409471e+00
-6.545634e+00
-6.595414e+00
-6.606165e+00
-6.613620e+00
-6.619672e+00
-6.625627e+00
-6.630855e+00
-6.634052e+00
-6.630369e+00
-6.613829e+00
-6.617298e+00
-6.609821e+00
-6.618134e+00
-6.615665e+00
-6.642254e+00
-5.876503e+00
-6.212795e+00
-6.378082e+00
-6.517187e+00
-6.570227e+00
-6.582334e+00
-6.588910e+00
-6.594817e+00
-6.600297e+00
-6.604340e+00
-6.607009e+00
-6.603396e+00
-6.586782e+00
-6.591297e+00
-6.583014e+00
-6.588835e+00
-6.585164e+00
-6.615914e+00
-5.794379e+00
-6.169625e+00
-6.340736e+00
-6.475503e+00
-6.529807e+00
-6.543855e+00
-6.551388e+00
-6.557584e+00
-6.563180e+00
-6.567663e+00
-6.569913e+00
-6.565386e+00
-6.548944e+00
-6.551506e+00
-6.538449e+00
-6.538601e+00
-6.534843e+00
-6.573036e+00
-5.724969e+00
-6.161287e+00
-6.312007e+00
-6.439045e+00
-6.488097e+00
-6.502722e+00
-6.511521e+00
-6.519247e+00
-6.526392e+00
-6.532142e+00
-6.534792e+00
-6.530172e+00
-6.513480e+00
-6.510115e+00
-6.497490e+00
-6.508690e+00
-6.508504e+00
-6.538490e+00
-5.774121e+00
-6.187793e+00
-6.353979e+00
-6.466251e+00
-6.522379e+00
-6.532471e+00
-6.538292e+00
-6.543316e+00
-6.548565e+00
-6.554028e+00
-6.556901e+00
-6.552010e+00
-6.534668e+00
-6.533874e+00
-6.532257e+00
-6.546174e+00
-6.552898e+00
-6.587548e+00
-5.824063e+00
-6.307215e+00
-6.429758e+00
-6.539181e+00
-6.581102e+00
-6.592563e+00
-6.599645e+00
-6.607619e+00
-6.614326e+00
-6.619447e+00
-6.621906e+00
-6.615539e+00
-6.594723e+00
-6.599633e+00
-6.589276e+00
-6.599288e+00
-6.630951e+00
-6.593297e+00
-5.904776e+00
-6.312020e+00
-6.399277e+00
-6.469613e+00
-6.506002e+00
-6.515430e+00
-6.520948e+00
-6.526701e+00
-6.531730e+00
-6.536260e+00
-6.537784e+00
-6.530756e+00
-6.514005e+00
-6.533350e+00
-6.530114e+00
-6.540420e+00
-6.496923e+00
-6.445118e+00
-6.327653e+00
-6.576075e+00
-6.525365e+00
-6.555599e+00
-6.576545e+00
-6.585935e+00
-6.592927e+00
-6.599481e+00
-6.607559e+00
-6.616556e+00
-6.622135e+00
-6.615103e+00
-6.590425e+00
-6.605675e+00
-6.606513e+00
-6.614721e+00
-6.601798e+00
-6.507477e+00
-6.546983e+00
-6.680458e+00
-6.579920e+00
-6.592628e+00
-6.615207e+00
-6.625039e+00
-6.630520e+00
-6.635910e+00
-6.644694e+00
-6.653402e+00
-6.659003e+00
-6.651436e+00
-6.624485e+00
-6.643144e+00
-6.643863e+00
-6.655822e+00
-6.649792e+00
-6.566169e+00
-6.572118e+00
-6.679133e+00
-6.582386e+00
-6.587299e+00
-6.613233e+00
-6.623807e+00
-6.630071e+00
-6.635603e+00
-6.641143e+00
-6.648806e+00
-6.653482e+00
-6.645086e+00
-6.617916e+00
-6.640618e+00
-6.639578e+00
-6.653791e+00
-6.644836e+00
-6.573468e+00
-6.517010e+00
-6.656352e+00
-6.562343e+00
-6.571747e+00
-6.599219e+00
-6.607574e+00
-6.614235e+00
-6.620530e+00
-6.626435e+00
-6.632432e+00
-6.635187e+00
-6.626680e+00
-6.603979e+00
-6.627257e+00
-6.628116e+00
-6.643157e+00
-6.637300e+00
-6.568448e+00
-6.436663e+00
-6.523117e+00
-6.489468e+00
-6.504883e+00
-6.545308e+00
-6.555012e+00
-6.561784e+00
-6.569774e+00
-6.579509e+00
-6.590679e+00
-6.599974e+00
-6.593513e+00
-6.571701e+00
-6.594464e+00
-6.595853e+00
-6.612036e+00
-6.613043e+00
-6.552705e+00
-5.737901e+00
-6.342731e+00
-6.275137e+00
-6.367460e+00
-6.415325e+00
-6.427688e+00
-6.435946e+00
-6.451032e+00
-6.483776e+00
-6.524892e+00
-6.558543e+00
-6.566079e+00
-6.545672e+00
-6.561760e+00
-6.554466e+00
-6.585270e+00
-6.580207e+00
-6.487651e+00
-5.522706e+00
-6.327941e+00
-6.117315e+00
-6.201106e+00
-6.286212e+00
-6.300917e+00
-6.317161e+00
-6.345900e+00
-6.413619e+00
-6.446864e+00
-6.505692e+00
-6.538938e+00
-6.547071e+00
-6.544976e+00
-6.558126e+00
-6.581684e+00
-6.584090e+00
-6.472882e+00
-5.769744e+00
-5.414709e+00
-5.394334e+00
-5.919628e+00
-5.966310e+00
-5.998251e+00
-6.028049e+00
-6.097621e+00
-6.174634e+00
-6.262631e+00
-6.408445e+00
-6.548522e+00
-6.602450e+00
-6.570103e+00
-6.549444e+00
-6.534532e+00
-6.573693e+00
-6.509593e+00
-5.564965e+00
-6.356047e+00
-6.142596e+00
-6.470451e+00
-6.462588e+00
-6.455840e+00
-6.452888e+00
-6.450327e+00
-6.447951e+00
-6.446793e+00
-6.445665e+00
-6.444429e+00
-6.443141e+00
-6.441846e+00
-6.440553e+00
-6.440088e+00
-6.440214e+00
-6.440395e+00
-6.440292e+00
-6.440090e+00
-6.439711e+00
-6.439213e+00
-6.438705e+00
-6.438038e+00
-6.437422e+00
-6.437277e+00
-6.437810e+00
-6.438458e+00
-6.439123e+00
-6.439923e+00
-6.440852e+00
-6.441439e+00
-6.442473e+00
-6.443814e+00
-6.446217e+00
-6.450843e+00
-6.455863e+00
-6.461584e+00
-6.467628e+00
-6.473648e+00
-6.480211e+00
-6.487617e+00
-6.495275e+00
-6.503483e+00
-6.511799e+00
-6.520473e+00
-6.529980e+00
-6.540177e+00
-6.550263e+00
-6.560384e+00
-6.570398e+00
-6.580430e+00
-6.590718e+00
-6.602090e+00
-6.613941e+00
-6.625936e+00
-6.637978e+00
-6.649552e+00
-6.660634e+00
-6.671357e+00
-6.681651e+00
-6.692361e+00
-6.702879e+00
-6.713235e+00
-6.724219e+00
-6.735408e+00
-6.747170e+00
-6.759379e+00
-6.772195e+00
-6.784700e+00
-6.797363e+00
-6.811026e+00
-6.826386e+00
-6.842007e+00
-6.857359e+00
-6.873399e+00
-6.889924e+00
-6.907558e+00
-6.926386e+00
-6.945552e+00
-6.964665e+00
-6.983415e+00
-7.003246e+00
-7.022714e+00
-7.041904e+00
-7.061372e+00
-7.080337e+00
-7.098840e+00
-7.117317e+00
-7.136374e+00
-7.156756e+00
-7.177236e+00
-7.197234e+00
-7.216340e+00
-7.236624e+00
-7.257661e+00
-7.279182e+00
-7.301099e+00
-7.324184e+00
-7.348243e+00
-7.373066e+00
-7.399044e+00
-7.426393e+00
-7.453900e+00
-7.479249e+00
-7.504692e+00
-7.529389e+00
-7.554053e+00
-7.577676e+00
-7.603482e+00
-7.628623e+00
-7.653498e+00
-7.676353e+00
-7.699577e+00
-7.722359e+00
-7.744453e+00
-7.766313e+00
-7.787442e+00
-7.806682e+00
-7.824746e+00
-7.842329e+00
-7.859191e+00
-7.874917e+00
-7.887385e+00
-7.897161e+00
-7.906520e+00
-7.916046e+00
-7.925867e+00
-7.934101e+00
-7.940612e+00
-7.944234e+00
-7.946945e+00
-7.949410e+00
-7.949185e+00
-7.947174e+00
-7.945060e+00
-7.936489e+00
-7.922532e+00
-7.909361e+00
-7.894956e+00
-7.878592e+00
-7.859742e+00
-7.833363e+00
-7.802057e+00
-7.765560e+00
-7.727067e+00
-7.683758e+00
-7.634582e+00
-7.578714e+00
-7.514955e+00
-7.441750e+00
-7.359988e+00
-7.279120e+00
-7.194213e+00
-7.108245e+00
-7.018554e+00
-6.924467e+00
-6.825440e+00
-6.725886e+00
-6.634245e+00
-6.548573e+00
-6.468050e+00
-6.378682e+00
-6.284441e+00
-6.181905e+00
-6.071849e+00
-5.955138e+00
-5.834423e+00
-5.703343e+00
-5.561329e+00
-5.405833e+00
-5.255356e+00
-5.178741e+00
-5.353721e+00
-5.939439e+00
-6.468106e+00
-7.079063e+00
-7.261712e+00
-6.961332e+00
-6.327552e+00
-6.330967e+00
-6.686623e+00
-6.864295e+00
-6.898233e+00
-6.921585e+00
-6.925058e+00
-6.920607e+00
-6.915984e+00
-6.911434e+00
-6.906778e+00
-6.901981e+00
-6.897028e+00
-6.891870e+00
-6.886724e+00
-6.882040e+00
-6.877380e+00
-6.872578e+00
-6.868005e+00
-6.863546e+00
-6.858523e+00
-6.854040e+00
-6.849428e+00
-6.844762e+00
-6.841574e+00
-6.838646e+00
-6.835838e+00
-6.832921e+00
-6.829760e+00
-6.826773e+00
-6.824482e+00
-6.823013e+00
-6.821760e+00
-6.820562e+00
-6.819583e+00
-6.818999e+00
-6.818399e+00
-6.817980e+00
-6.817732e+00
-6.817483e+00
-6.817226e+00
-6.816780e+00
-6.816183e+00
-6.815469e+00
-6.814797e+00
-6.814235e+00
-6.814099e+00
-6.816328e+00
-6.819662e+00
-6.823079e+00
-6.826332e+00
-6.829811e+00
-6.833422e+00
-6.837678e+00
-6.843158e+00
-6.849726e+00
-6.857241e+00
-6.865642e+00
-6.875630e+00
-6.885358e+00
-6.895080e+00
-6.905000e+00
-6.915651e+00
-6.926321e+00
-6.936264e+00
-6.946066e+00
-6.956348e+00
-6.967321e+00
-6.978915e+00
-6.990596e+00
-7.002971e+00
-7.016355e+00
-7.029687e+00
-7.042783e+00
-7.055730e+00
-7.068306e+00
-7.081023e+00
-7.092905e+00
-7.105892e+00
-7.119140e+00
-7.132713e+00
-7.147029e+00
-7.160843e+00
-7.174797e+00
-7.189709e+00
-7.205644e+00
-7.221595e+00
-7.238118e+00
-7.255560e+00
-7.273290e+00
-7.290319e+00
-7.307038e+00
-7.324146e+00
-7.342590e+00
-7.361074e+00
-7.380508e+00
-7.400595e+00
-7.420474e+00
-7.439701e+00
-7.458994e+00
-7.477949e+00
-7.496490e+00
-7.515380e+00
-7.535326e+00
-7.556595e+00
-7.578840e+00
-7.601358e+00
-7.624096e+00
-7.647345e+00
-7.671160e+00
-7.694121e+00
-7.717682e+00
-7.741248e+00
-7.762661e+00
-7.781949e+00
-7.800360e+00
-7.817967e+00
-7.834060e+00
-7.849158e+00
-7.863330e+00
-7.878680e+00
-7.895538e+00
-7.910973e+00
-7.925750e+00
-7.939876e+00
-7.952991e+00
-7.964688e+00
-7.975159e+00
-7.987544e+00
-7.997368e+00
-8.003873e+00
-8.008132e+00
-8.010365e+00
-8.011415e+00
-8.009491e+00
-8.005827e+00
-7.999243e+00
-7.989584e+00
-7.977648e+00
-7.964459e+00
-7.948685e+00
-7.929493e+00
-7.908269e+00
-7.884587e+00
-7.856248e+00
-7.824414e+00
-7.792166e+00
-7.765602e+00
-7.739576e+00
-7.709376e+00
-7.674918e+00
-7.636248e+00
-7.593352e+00
-7.547287e+00
-7.494481e+00
-7.433483e+00
-7.368823e+00
-7.299539e+00
-7.224317e+00
-7.141596e+00
-7.051335e+00
-6.952032e+00
-6.853223e+00
-6.753380e+00
-6.653675e+00
-6.550980e+00
-6.442847e+00
-6.330004e+00
-6.211055e+00
-6.081927e+00
-5.944133e+00
-5.803281e+00
-5.679409e+00
-5.688342e+00
-5.927008e+00
-6.274568e+00
-6.783236e+00
-7.093411e+00
-7.070422e+00
-6.600712e+00
-5.929005e+00
-6.060231e+00
-6.786302e+00
-6.720134e+00
-6.787608e+00
-6.816867e+00
-6.816553e+00
-6.811403e+00
-6.805705e+00
-6.799926e+00
-6.793830e+00
-6.787606e+00
-6.781836e+00
-6.777401e+00
-6.772837e+00
-6.768283e+00
-6.764322e+00
-6.760412e+00
-6.756476e+00
-6.752482e+00
-6.748356e+00
-6.744149e+00
-6.740241e+00
-6.736694e+00
-6.733197e+00
-6.730767e+00
-6.728395e+00
-6.727263e+00
-6.726072e+00
-6.724976e+00
-6.724061e+00
-6.723812e+00
-6.723776e+00
-6.723736e+00
-6.723768e+00
-6.723754e+00
-6.723882e+00
-6.724860e+00
-6.726469e+00
-6.728528e+00
-6.730710e+00
-6.732842e+00
-6.735025e+00
-6.737188e+00
-6.739343e+00
-6.741775e+00
-6.744296e+00
-6.747163e+00
-6.750009e+00
-6.752746e+00
-6.755346e+00
-6.757683e+00
-6.759576e+00
-6.761346e+00
-6.763772e+00
-6.767141e+00
-6.770987e+00
-6.775696e+00
-6.782146e+00
-6.788852e+00
-6.796523e+00
-6.804995e+00
-6.815481e+00
-6.826285e+00
-6.837585e+00
-6.849151e+00
-6.861456e+00
-6.874348e+00
-6.888227e+00
-6.902230e+00
-6.915267e+00
-6.929114e+00
-6.943451e+00
-6.958404e+00
-6.972931e+00
-6.986346e+00
-6.999390e+00
-7.012394e+00
-7.025524e+00
-7.038877e+00
-7.052759e+00
-7.067915e+00
-7.084249e+00
-7.102069e+00
-7.121251e+00
-7.140062e+00
-7.158401e+00
-7.177651e+00
-7.198421e+00
-7.220362e+00
-7.242800e+00
-7.264840e+00
-7.287804e+00
-7.311262e+00
-7.334472e+00
-7.357581e+00
-7.381379e+00
-7.405626e+00
-7.429032e+00
-7.450833e+00
-7.470784e+00
-7.489936e+00
-7.508391e+00
-7.527133e+00
-7.546731e+00
-7.567342e+00
-7.588600e+00
-7.610500e+00
-7.632694e+00
-7.654936e+00
-7.677200e+00
-7.700563e+00
-7.725302e+00
-7.751600e+00
-7.777583e+00
-7.801860e+00
-7.824212e+00
-7.845649e+00
-7.864382e+00
-7.883735e+00
-7.901373e+00
-7.918783e+00
-7.935820e+00
-7.951929e+00
-7.968048e+00
-7.982904e+00
-7.996511e+00
-8.009016e+00
-8.021217e+00
-8.030293e+00
-8.035123e+00
-8.033506e+00
-8.025318e+00
-8.015134e+00
-8.003075e+00
-7.988744e+00
-7.973231e+00
-7.954040e+00
-7.931816e+00
-7.905536e+00
-7.876274e+00
-7.844570e+00
-7.814339e+00
-7.784419e+00
-7.750650e+00
-7.713579e+00
-7.674585e+00
-7.637002e+00
-7.597717e+00
-7.556822e+00
-7.512551e+00
-7.465766e+00
-7.411272e+00
-7.349673e+00
-7.283582e+00
-7.221519e+00
-7.161336e+00
-7.095622e+00
-7.024718e+00
-6.945987e+00
-6.859077e+00
-6.768078e+00
-6.675065e+00
-6.583472e+00
-6.496479e+00
-6.403759e+00
-6.293698e+00
-6.167078e+00
-6.030571e+00
-5.881019e+00
-5.720014e+00
-5.557424e+00
-5.418065e+00
-5.451803e+00
-5.850028e+00
-6.328484e+00
-6.700611e+00
-6.964725e+00
-6.903462e+00
-6.226694e+00
-5.256657e+00
-6.413115e+00
-6.818256e+00
-6.778186e+00
-6.893768e+00
-6.930643e+00
-6.934001e+00
-6.932054e+00
-6.929637e+00
-6.928586e+00
-6.927987e+00
-6.927220e+00
-6.926046e+00
-6.924785e+00
-6.923405e+00
-6.922019e+00
-6.920681e+00
-6.921026e+00
-6.921620e+00
-6.922266e+00
-6.922905e+00
-6.923667e+00
-6.924543e+00
-6.925185e+00
-6.925756e+00
-6.926792e+00
-6.927722e+00
-6.928721e+00
-6.930058e+00
-6.931715e+00
-6.933925e+00
-6.936383e+00
-6.938789e+00
-6.940880e+00
-6.942507e+00
-6.943544e+00
-6.944343e+00
-6.946059e+00
-6.947797e+00
-6.949565e+00
-6.952116e+00
-6.955296e+00
-6.958453e+00
-6.961765e+00
-6.965753e+00
-6.970146e+00
-6.975063e+00
-6.979375e+00
-6.983509e+00
-6.987195e+00
-6.991176e+00
-6.994624e+00
-6.999324e+00
-7.004234e+00
-7.010015e+00
-7.016510e+00
-7.023097e+00
-7.030048e+00
-7.037164e+00
-7.043837e+00
-7.049806e+00
-7.056453e+00
-7.062252e+00
-7.067046e+00
-7.073290e+00
-7.079822e+00
-7.086870e+00
-7.096095e+00
-7.107006e+00
-7.118675e+00
-7.130684e+00
-7.143250e+00
-7.156041e+00
-7.168753e+00
-7.182285e+00
-7.195897e+00
-7.209751e+00
-7.225300e+00
-7.241660e+00
-7.257456e+00
-7.273234e+00
-7.288984e+00
-7.305517e+00
-7.323047e+00
-7.341904e+00
-7.360863e+00
-7.379609e+00
-7.396994e+00
-7.414028e+00
-7.431325e+00
-7.449197e+00
-7.468640e+00
-7.489902e+00
-7.512865e+00
-7.537902e+00
-7.563706e+00
-7.588037e+00
-7.611997e+00
-7.636220e+00
-7.661729e+00
-7.685469e+00
-7.709104e+00
-7.733044e+00
-7.755690e+00
-7.777641e+00
-7.798246e+00
-7.818072e+00
-7.838946e+00
-7.861088e+00
-7.883582e+00
-7.906265e+00
-7.929190e+00
-7.952649e+00
-7.976253e+00
-7.999363e+00
-8.022131e+00
-8.044728e+00
-8.066241e+00
-8.088003e+00
-8.110661e+00
-8.134252e+00
-8.157313e+00
-8.178681e+00
-8.196835e+00
-8.215161e+00
-8.231931e+00
-8.246209e+00
-8.256456e+00
-8.265573e+00
-8.271826e+00
-8.274546e+00
-8.273064e+00
-8.270083e+00
-8.262989e+00
-8.250515e+00
-8.234707e+00
-8.216042e+00
-8.195436e+00
-8.169621e+00
-8.144141e+00
-8.115840e+00
-8.087058e+00
-8.057946e+00
-8.026497e+00
-7.990388e+00
-7.952070e+00
-7.911207e+00
-7.865845e+00
-7.817273e+00
-7.766583e+00
-7.711056e+00
-7.653583e+00
-7.589582e+00
-7.524088e+00
-7.455843e+00
-7.386117e+00
-7.316862e+00
-7.246190e+00
-7.167784e+00
-7.080957e+00
-6.986368e+00
-6.882067e+00
-6.774097e+00
-6.672489e+00
-6.580648e+00
-6.493993e+00
-6.412439e+00
-6.322960e+00
-6.221924e+00
-6.120975e+00
-6.006502e+00
-5.879837e+00
-5.756801e+00
-5.779226e+00
-6.130835e+00
-6.581468e+00
-7.010872e+00
-7.338657e+00
-7.190225e+00
-6.394649e+00
-5.078527e+00
-6.515576e+00
-6.843218e+00
-6.808548e+00
-6.948244e+00
-6.985922e+00
-6.988046e+00
-6.985562e+00
-6.983831e+00
-6.982183e+00
-6.981524e+00
-6.981667e+00
-6.981761e+00
-6.981868e+00
-6.982449e+00
-6.984474e+00
-6.986322e+00
-6.988370e+00
-6.990612e+00
-6.993024e+00
-6.995631e+00
-6.998608e+00
-7.001531e+00
-7.004377e+00
-7.008124e+00
-7.012296e+00
-7.016629e+00
-7.020976e+00
-7.025864e+00
-7.030890e+00
-7.036015e+00
-7.041609e+00
-7.047139e+00
-7.052526e+00
-7.057543e+00
-7.062037e+00
-7.066310e+00
-7.071110e+00
-7.075975e+00
-7.081046e+00
-7.086081e+00
-7.090914e+00
-7.095340e+00
-7.099418e+00
-7.103297e+00
-7.107693e+00
-7.111718e+00
-7.115736e+00
-7.118821e+00
-7.121363e+00
-7.123274e+00
-7.126221e+00
-7.129173e+00
-7.131954e+00
-7.134485e+00
-7.137612e+00
-7.140475e+00
-7.144242e+00
-7.147526e+00
-7.150906e+00
-7.154428e+00
-7.157873e+00
-7.161767e+00
-7.165493e+00
-7.169521e+00
-7.174385e+00
-7.180512e+00
-7.186573e+00
-7.193160e+00
-7.200771e+00
-7.209484e+00
-7.219616e+00
-7.230750e+00
-7.242082e+00
-7.254217e+00
-7.266234e+00
-7.279243e+00
-7.293055e+00
-7.306564e+00
-7.319977e+00
-7.334284e+00
-7.347762e+00
-7.360698e+00
-7.373625e+00
-7.387384e+00
-7.404184e+00
-7.423361e+00
-7.444231e+00
-7.465310e+00
-7.486689e+00
-7.510231e+00
-7.535026e+00
-7.559523e+00
-7.583325e+00
-7.606520e+00
-7.628601e+00
-7.650968e+00
-7.673165e+00
-7.695213e+00
-7.716271e+00
-7.737089e+00
-7.756906e+00
-7.776113e+00
-7.795258e+00
-7.816279e+00
-7.839000e+00
-7.861993e+00
-7.884508e+00
-7.905861e+00
-7.928149e+00
-7.950432e+00
-7.972144e+00
-7.992058e+00
-8.012519e+00
-8.033162e+00
-8.054108e+00
-8.074441e+00
-8.095353e+00
-8.116279e+00
-8.135920e+00
-8.154427e+00
-8.172612e+00
-8.187673e+00
-8.200753e+00
-8.211350e+00
-8.220955e+00
-8.232461e+00
-8.242633e+00
-8.250626e+00
-8.254324e+00
-8.254147e+00
-8.251507e+00
-8.245766e+00
-8.235491e+00
-8.221718e+00
-8.205670e+00
-8.190801e+00
-8.172979e+00
-8.153606e+00
-8.133649e+00
-8.110772e+00
-8.084538e+00
-8.055993e+00
-8.027212e+00
-7.995541e+00
-7.960654e+00
-7.923059e+00
-7.883419e+00
-7.835776e+00
-7.778010e+00
-7.716088e+00
-7.654722e+00
-7.590202e+00
-7.524730e+00
-7.453939e+00
-7.381050e+00
-7.302252e+00
-7.223886e+00
-7.140618e+00
-7.049040e+00
-6.953915e+00
-6.855401e+00
-6.759445e+00
-6.660940e+00
-6.577225e+00
-6.509952e+00
-6.436937e+00
-6.354985e+00
-6.265785e+00
-6.168180e+00
-6.060573e+00
-5.948190e+00
-5.841599e+00
-5.856693e+00
-6.181601e+00
-6.612489e+00
-7.043296e+00
-7.400388e+00
-7.248286e+00
-6.369153e+00
-4.647920e+00
-6.598935e+00
-6.820664e+00
-6.817377e+00
-6.973693e+00
-7.019878e+00
-7.025818e+00
-7.025866e+00
-7.025889e+00
-7.026316e+00
-7.027543e+00
-7.029410e+00
-7.031648e+00
-7.033854e+00
-7.036052e+00
-7.038448e+00
-7.040855e+00
-7.043247e+00
-7.045966e+00
-7.049183e+00
-7.054494e+00
-7.060553e+00
-7.066454e+00
-7.072030e+00
-7.077456e+00
-7.082840e+00
-7.088879e+00
-7.094659e+00
-7.100584e+00
-7.106136e+00
-7.111968e+00
-7.117710e+00
-7.123346e+00
-7.128939e+00
-7.134458e+00
-7.139899e+00
-7.145641e+00
-7.151150e+00
-7.155913e+00
-7.160274e+00
-7.165003e+00
-7.170134e+00
-7.175796e+00
-7.181468e+00
-7.186453e+00
-7.190652e+00
-7.193749e+00
-7.195932e+00
-7.197909e+00
-7.199726e+00
-7.201112e+00
-7.203155e+00
-7.205303e+00
-7.207973e+00
-7.211255e+00
-7.215891e+00
-7.220018e+00
-7.223855e+00
-7.227650e+00
-7.231286e+00
-7.235373e+00
-7.239817e+00
-7.244587e+00
-7.249038e+00
-7.253155e+00
-7.257011e+00
-7.260613e+00
-7.264946e+00
-7.271133e+00
-7.278491e+00
-7.286437e+00
-7.295265e+00
-7.305294e+00
-7.315795e+00
-7.327432e+00
-7.339197e+00
-7.351476e+00
-7.361631e+00
-7.371540e+00
-7.381197e+00
-7.390872e+00
-7.402532e+00
-7.416006e+00
-7.431009e+00
-7.446621e+00
-7.463900e+00
-7.482354e+00
-7.503508e+00
-7.524996e+00
-7.544798e+00
-7.564936e+00
-7.584152e+00
-7.602919e+00
-7.621477e+00
-7.641325e+00
-7.662239e+00
-7.682012e+00
-7.701840e+00
-7.722768e+00
-7.743287e+00
-7.763227e+00
-7.782517e+00
-7.802412e+00
-7.821651e+00
-7.841136e+00
-7.861634e+00
-7.881728e+00
-7.903823e+00
-7.928520e+00
-7.949791e+00
-7.969961e+00
-7.987512e+00
-8.003293e+00
-8.018124e+00
-8.033798e+00
-8.049060e+00
-8.063429e+00
-8.077319e+00
-8.092079e+00
-8.104055e+00
-8.115225e+00
-8.124433e+00
-8.135359e+00
-8.145584e+00
-8.154660e+00
-8.160870e+00
-8.166149e+00
-8.170037e+00
-8.175200e+00
-8.177909e+00
-8.177555e+00
-8.174414e+00
-8.169380e+00
-8.165382e+00
-8.159468e+00
-8.148829e+00
-8.136095e+00
-8.121464e+00
-8.105650e+00
-8.087179e+00
-8.064862e+00
-8.039410e+00
-8.011311e+00
-7.983603e+00
-7.953396e+00
-7.918770e+00
-7.879631e+00
-7.838802e+00
-7.792462e+00
-7.741680e+00
-7.689428e+00
-7.634039e+00
-7.572084e+00
-7.508483e+00
-7.442009e+00
-7.368393e+00
-7.286668e+00
-7.204754e+00
-7.125043e+00
-7.026039e+00
-6.918609e+00
-6.813371e+00
-6.716692e+00
-6.625345e+00
-6.550514e+00
-6.484714e+00
-6.421253e+00
-6.348098e+00
-6.269992e+00
-6.178100e+00
-6.080287e+00
-5.979477e+00
-5.888053e+00
-5.906219e+00
-6.225396e+00
-6.618281e+00
-6.961903e+00
-7.325635e+00
-7.192717e+00
-6.300799e+00
-4.148594e+00
-6.665589e+00
-6.793880e+00
-6.832305e+00
-7.023742e+00
-7.071754e+00
-7.078893e+00
-7.080504e+00
-7.081501e+00
-7.082340e+00
-7.083372e+00
-7.084899e+00
-7.086780e+00
-7.088978e+00
-7.091225e+00
-7.093804e+00
-7.096182e+00
-7.098563e+00
-7.101124e+00
-7.103790e+00
-7.106601e+00
-7.109452e+00
-7.112677e+00
-7.115648e+00
-7.120618e+00
-7.126127e+00
-7.131630e+00
-7.137136e+00
-7.142534e+00
-7.148918e+00
-7.155202e+00
-7.161784e+00
-7.168105e+00
-7.174386e+00
-7.180311e+00
-7.186747e+00
-7.193246e+00
-7.200341e+00
-7.207520e+00
-7.214755e+00
-7.221615e+00
-7.227382e+00
-7.232627e+00
-7.237334e+00
-7.241455e+00
-7.245367e+00
-7.250120e+00
-7.254729e+00
-7.259315e+00
-7.263941e+00
-7.268447e+00
-7.273081e+00
-7.277264e+00
-7.281957e+00
-7.286973e+00
-7.292200e+00
-7.297400e+00
-7.302205e+00
-7.307235e+00
-7.313074e+00
-7.319683e+00
-7.326861e+00
-7.334380e+00
-7.342399e+00
-7.350200e+00
-7.358264e+00
-7.366039e+00
-7.374002e+00
-7.381993e+00
-7.390514e+00
-7.399592e+00
-7.407148e+00
-7.413843e+00
-7.420417e+00
-7.427359e+00
-7.434307e+00
-7.441065e+00
-7.449046e+00
-7.457867e+00
-7.467721e+00
-7.480622e+00
-7.494390e+00
-7.508448e+00
-7.522193e+00
-7.536711e+00
-7.550579e+00
-7.563531e+00
-7.576260e+00
-7.588217e+00
-7.600013e+00
-7.614193e+00
-7.629901e+00
-7.647529e+00
-7.668674e+00
-7.690268e+00
-7.711719e+00
-7.732881e+00
-7.753899e+00
-7.774606e+00
-7.795242e+00
-7.813875e+00
-7.833576e+00
-7.852731e+00
-7.871189e+00
-7.890255e+00
-7.909350e+00
-7.927841e+00
-7.944733e+00
-7.959829e+00
-7.973284e+00
-7.985725e+00
-7.997565e+00
-8.007874e+00
-8.017670e+00
-8.026863e+00
-8.035205e+00
-8.041945e+00
-8.048923e+00
-8.056251e+00
-8.066012e+00
-8.073315e+00
-8.078745e+00
-8.080521e+00
-8.083046e+00
-8.085975e+00
-8.088321e+00
-8.091258e+00
-8.093007e+00
-8.095259e+00
-8.096971e+00
-8.100537e+00
-8.103099e+00
-8.103847e+00
-8.104759e+00
-8.101315e+00
-8.095262e+00
-8.086431e+00
-8.075762e+00
-8.063910e+00
-8.050341e+00
-8.034020e+00
-8.013330e+00
-7.990348e+00
-7.961932e+00
-7.928099e+00
-7.895250e+00
-7.860185e+00
-7.822296e+00
-7.780601e+00
-7.739359e+00
-7.697181e+00
-7.652436e+00
-7.602416e+00
-7.544588e+00
-7.481109e+00
-7.407788e+00
-7.313863e+00
-7.215409e+00
-7.114011e+00
-7.016748e+00
-6.914014e+00
-6.810001e+00
-6.713533e+00
-6.631283e+00
-6.565376e+00
-6.504446e+00
-6.441170e+00
-6.370735e+00
-6.283729e+00
-6.191414e+00
-6.092766e+00
-5.996026e+00
-5.909892e+00
-5.952501e+00
-6.326457e+00
-6.672056e+00
-6.884098e+00
-7.217559e+00
-7.139559e+00
-6.193379e+00
-3.571954e+00
-6.731602e+00
-6.766736e+00
-6.846990e+00
-7.067182e+00
-7.124784e+00
-7.130419e+00
-7.130981e+00
-7.131198e+00
-7.131547e+00
-7.132316e+00
-7.133600e+00
-7.135799e+00
-7.138150e+00
-7.140609e+00
-7.143315e+00
-7.145980e+00
-7.148587e+00
-7.151625e+00
-7.154793e+00
-7.159057e+00
-7.162996e+00
-7.166753e+00
-7.170219e+00
-7.173313e+00
-7.176369e+00
-7.180244e+00
-7.185537e+00
-7.190875e+00
-7.195632e+00
-7.200680e+00
-7.206079e+00
-7.211343e+00
-7.216282e+00
-7.221195e+00
-7.226254e+00
-7.231500e+00
-7.237051e+00
-7.243205e+00
-7.249679e+00
-7.255785e+00
-7.261760e+00
-7.267366e+00
-7.272888e+00
-7.278369e+00
-7.283907e+00
-7.290477e+00
-7.297232e+00
-7.303932e+00
-7.310479e+00
-7.316856e+00
-7.323554e+00
-7.330065e+00
-7.336484e+00
-7.343789e+00
-7.351479e+00
-7.359844e+00
-7.367828e+00
-7.375287e+00
-7.382194e+00
-7.389079e+00
-7.396146e+00
-7.403238e+00
-7.409312e+00
-7.416024e+00
-7.423556e+00
-7.430720e+00
-7.437317e+00
-7.444181e+00
-7.453266e+00
-7.462712e+00
-7.471978e+00
-7.480190e+00
-7.488886e+00
-7.497466e+00
-7.507368e+00
-7.517860e+00
-7.528967e+00
-7.539788e+00
-7.550637e+00
-7.561766e+00
-7.572973e+00
-7.583927e+00
-7.595791e+00
-7.607066e+00
-7.618397e+00
-7.629254e+00
-7.638362e+00
-7.647275e+00
-7.656977e+00
-7.668465e+00
-7.681245e+00
-7.696967e+00
-7.714996e+00
-7.734783e+00
-7.755657e+00
-7.777806e+00
-7.799668e+00
-7.821757e+00
-7.842680e+00
-7.861349e+00
-7.879146e+00
-7.897024e+00
-7.913490e+00
-7.930535e+00
-7.947655e+00
-7.963787e+00
-7.977652e+00
-7.988876e+00
-7.997877e+00
-8.004419e+00
-8.011250e+00
-8.017922e+00
-8.023678e+00
-8.025145e+00
-8.026296e+00
-8.032120e+00
-8.037568e+00
-8.041275e+00
-8.044330e+00
-8.046519e+00
-8.045889e+00
-8.044431e+00
-8.043725e+00
-8.044328e+00
-8.046744e+00
-8.052628e+00
-8.058493e+00
-8.063376e+00
-8.066912e+00
-8.068224e+00
-8.068930e+00
-8.071279e+00
-8.074531e+00
-8.074182e+00
-8.068747e+00
-8.065772e+00
-8.060933e+00
-8.052864e+00
-8.041547e+00
-8.024362e+00
-8.010661e+00
-7.991752e+00
-7.968738e+00
-7.943028e+00
-7.914561e+00
-7.891722e+00
-7.870547e+00
-7.843512e+00
-7.814109e+00
-7.779339e+00
-7.737328e+00
-7.682941e+00
-7.617400e+00
-7.547963e+00
-7.467136e+00
-7.378448e+00
-7.284757e+00
-7.182134e+00
-7.077332e+00
-6.975249e+00
-6.871794e+00
-6.776633e+00
-6.692836e+00
-6.619874e+00
-6.548348e+00
-6.474999e+00
-6.389589e+00
-6.296985e+00
-6.198815e+00
-6.092902e+00
-5.986845e+00
-5.898650e+00
-5.960768e+00
-6.383794e+00
-6.755363e+00
-6.851917e+00
-7.118676e+00
-7.097785e+00
-6.052762e+00
-2.995219e+00
-6.806671e+00
-6.739195e+00
-6.883640e+00
-7.126035e+00
-7.182717e+00
-7.187898e+00
-7.188031e+00
-7.188051e+00
-7.188414e+00
-7.188881e+00
-7.189416e+00
-7.190322e+00
-7.192182e+00
-7.194033e+00
-7.195458e+00
-7.196623e+00
-7.197783e+00
-7.199254e+00
-7.201361e+00
-7.203527e+00
-7.205756e+00
-7.207882e+00
-7.210527e+00
-7.213395e+00
-7.216005e+00
-7.219000e+00
-7.222056e+00
-7.226853e+00
-7.231693e+00
-7.236519e+00
-7.242021e+00
-7.247924e+00
-7.254108e+00
-7.260649e+00
-7.267568e+00
-7.274516e+00
-7.281274e+00
-7.287818e+00
-7.294115e+00
-7.300282e+00
-7.306175e+00
-7.311551e+00
-7.316773e+00
-7.322407e+00
-7.328428e+00
-7.335138e+00
-7.341532e+00
-7.347814e+00
-7.353963e+00
-7.360451e+00
-7.366653e+00
-7.372491e+00
-7.379383e+00
-7.386391e+00
-7.393320e+00
-7.399883e+00
-7.406287e+00
-7.413043e+00
-7.419302e+00
-7.425914e+00
-7.433381e+00
-7.441647e+00
-7.448457e+00
-7.453770e+00
-7.458460e+00
-7.463672e+00
-7.469882e+00
-7.477260e+00
-7.486438e+00
-7.497713e+00
-7.510006e+00
-7.522219e+00
-7.534245e+00
-7.546096e+00
-7.558542e+00
-7.571178e+00
-7.582716e+00
-7.592880e+00
-7.603228e+00
-7.613649e+00
-7.624366e+00
-7.634315e+00
-7.642773e+00
-7.650864e+00
-7.658371e+00
-7.666523e+00
-7.674797e+00
-7.683357e+00
-7.691166e+00
-7.701992e+00
-7.717954e+00
-7.733815e+00
-7.749976e+00
-7.768535e+00
-7.789500e+00
-7.811875e+00
-7.834833e+00
-7.856604e+00
-7.878376e+00
-7.897782e+00
-7.915091e+00