/*--------------------------------*- C++ -*----------------------------------*\
| =========                 |                                                 |
| \\      /  F ield         | OpenFOAM: The Open Source CFD Toolbox           |
|  \\    /   O peration     | Version:  v2406                                 |
|   \\  /    A nd           | Website:  www.openfoam.com                      |
|    \\/     M anipulation  |                                                 |
\*---------------------------------------------------------------------------*/
FoamFile
{
    version     2.0;
    format      ascii;
    class       volVectorField;
    location    "predicted";
    object      U;
}
// * * * * * * * * * * * * * * * * * * * * * * * * * * * * * * * * * * * * * //

dimensions      [0 1 -1 0 0 0 0];

internalField   nonuniform List<vector>
49181
(
(5.741411e+00 -6.727382e-02 -9.736487e-02)
(6.115070e+00 -1.020120e-01 -2.109047e-02)
(6.176392e+00 -7.248225e-02 -5.564922e-02)
(6.146242e+00 -6.167179e-02 -6.242158e-02)
(6.124058e+00 -5.801290e-02 -6.618279e-02)
(6.114011e+00 -5.752968e-02 -6.670775e-02)
(6.101796e+00 -5.716262e-02 -6.730850e-02)
(6.077999e+00 -5.624483e-02 -6.841124e-02)
(6.039450e+00 -5.415194e-02 -6.965248e-02)
(5.974719e+00 -5.189086e-02 -7.067274e-02)
(5.930959e+00 -4.905940e-02 -7.220260e-02)
(5.916444e+00 -4.824212e-02 -7.288585e-02)
(5.923334e+00 -4.860320e-02 -7.273782e-02)
(5.943582e+00 -4.923475e-02 -7.228658e-02)
(5.966893e+00 -5.057985e-02 -7.127459e-02)
(5.995226e+00 -5.236178e-02 -7.086404e-02)
(5.984493e+00 -6.448176e-02 -6.121609e-02)
(5.870213e+00 -5.645510e-02 -8.999211e-02)
(6.137444e+00 -1.032387e-01 -1.958295e-02)
(6.640675e+00 -8.240443e-02 -2.287994e-02)
(6.805057e+00 -8.122120e-02 -2.408897e-02)
(6.803156e+00 -7.572343e-02 -2.753348e-02)
(6.807689e+00 -7.404113e-02 -2.634893e-02)
(6.787176e+00 -7.390083e-02 -2.562354e-02)
(6.762906e+00 -7.361022e-02 -2.491774e-02)
(6.723891e+00 -7.282387e-02 -2.396722e-02)
(6.655148e+00 -7.201868e-02 -2.312460e-02)
(6.561418e+00 -6.988218e-02 -2.222656e-02)
(6.501511e+00 -6.890429e-02 -2.166005e-02)
(6.480285e+00 -6.850292e-02 -2.134301e-02)
(6.495687e+00 -6.866602e-02 -2.133864e-02)
(6.544686e+00 -6.917427e-02 -2.239936e-02)
(6.609843e+00 -7.008238e-02 -2.352712e-02)
(6.666668e+00 -7.104152e-02 -2.449813e-02)
(6.598071e+00 -7.307655e-02 -2.358743e-02)
(6.421645e+00 -7.985367e-02 -1.726923e-02)
(6.255742e+00 -7.676391e-02 -5.013999e-02)
(6.923880e+00 -8.336661e-02 -2.380736e-02)
(7.262540e+00 -8.630589e-02 -1.948954e-02)
(7.418707e+00 -8.636018e-02 -1.908264e-02)
(7.436238e+00 -8.649361e-02 -1.958385e-02)
(7.430456e+00 -8.663641e-02 -1.975315e-02)
(7.419976e+00 -8.674366e-02 -2.000593e-02)
(7.404205e+00 -8.676480e-02 -2.038630e-02)
(7.372151e+00 -8.636152e-02 -2.105817e-02)
(7.326286e+00 -8.619100e-02 -2.210738e-02)
(7.293027e+00 -8.553470e-02 -2.252555e-02)
(7.286735e+00 -8.570196e-02 -2.241915e-02)
(7.294396e+00 -8.595380e-02 -2.239152e-02)
(7.329440e+00 -8.574065e-02 -2.201742e-02)
(7.371314e+00 -8.572107e-02 -2.113849e-02)
(7.411469e+00 -8.577165e-02 -2.020136e-02)
(7.416958e+00 -8.564252e-02 -1.963397e-02)
(7.367470e+00 -8.657809e-02 -2.215073e-02)
(6.266994e+00 -6.950545e-02 -5.398786e-02)
(7.066557e+00 -8.014762e-02 -2.760651e-02)
(7.530251e+00 -8.702872e-02 -1.533472e-02)
(7.673737e+00 -8.556099e-02 -1.672133e-02)
(7.711250e+00 -8.562541e-02 -1.703898e-02)
(7.712260e+00 -8.592845e-02 -1.720542e-02)
(7.709913e+00 -8.611928e-02 -1.738445e-02)
(7.706345e+00 -8.628371e-02 -1.753171e-02)
(7.700799e+00 -8.651712e-02 -1.777644e-02)
(7.685376e+00 -8.647955e-02 -1.789082e-02)
(7.681098e+00 -8.655257e-02 -1.822541e-02)
(7.675701e+00 -8.679787e-02 -1.783871e-02)
(7.677970e+00 -8.707383e-02 -1.773387e-02)
(7.695545e+00 -8.634430e-02 -1.789399e-02)
(7.715864e+00 -8.584524e-02 -1.729797e-02)
(7.737788e+00 -8.552941e-02 -1.651836e-02)
(7.738531e+00 -8.568583e-02 -1.657983e-02)
(7.730004e+00 -8.585232e-02 -1.728751e-02)
(6.287195e+00 -6.945082e-02 -5.472406e-02)
(7.212063e+00 -8.104666e-02 -2.465449e-02)
(7.622839e+00 -8.867151e-02 -1.342565e-02)
(7.766581e+00 -8.801085e-02 -1.579880e-02)
(7.801006e+00 -8.738676e-02 -1.620490e-02)
(7.806726e+00 -8.732928e-02 -1.607187e-02)
(7.810217e+00 -8.727753e-02 -1.602269e-02)
(7.812647e+00 -8.720984e-02 -1.608073e-02)
(7.813795e+00 -8.713088e-02 -1.611454e-02)
(7.814251e+00 -8.715114e-02 -1.616218e-02)
(7.815268e+00 -8.708774e-02 -1.618719e-02)
(7.817595e+00 -8.739431e-02 -1.603331e-02)
(7.812323e+00 -8.759787e-02 -1.596870e-02)
(7.813072e+00 -8.720579e-02 -1.614334e-02)
(7.815717e+00 -8.745664e-02 -1.635042e-02)
(7.826457e+00 -8.761685e-02 -1.706962e-02)
(7.827103e+00 -8.778339e-02 -1.711914e-02)
(7.831734e+00 -8.737656e-02 -1.637630e-02)
(6.322686e+00 -7.206891e-02 -5.176320e-02)
(7.326170e+00 -8.323003e-02 -2.059208e-02)
(7.671734e+00 -8.996479e-02 -1.450008e-02)
(7.796574e+00 -8.827380e-02 -1.818622e-02)
(7.834614e+00 -8.754987e-02 -1.911792e-02)
(7.841837e+00 -8.759924e-02 -1.922725e-02)
(7.846745e+00 -8.772210e-02 -1.926971e-02)
(7.851200e+00 -8.786233e-02 -1.927604e-02)
(7.854995e+00 -8.799328e-02 -1.928027e-02)
(7.858075e+00 -8.814784e-02 -1.921814e-02)
(7.860670e+00 -8.830050e-02 -1.908899e-02)
(7.860596e+00 -8.849089e-02 -1.896292e-02)
(7.852832e+00 -8.863992e-02 -1.897489e-02)
(7.852923e+00 -8.805155e-02 -1.926473e-02)
(7.848722e+00 -8.756724e-02 -1.944892e-02)
(7.849955e+00 -8.744246e-02 -1.955594e-02)
(7.850041e+00 -8.756599e-02 -1.963939e-02)
(7.866758e+00 -8.757077e-02 -1.959770e-02)
(6.363306e+00 -7.484984e-02 -4.815983e-02)
(7.435427e+00 -8.517604e-02 -1.607889e-02)
(7.683063e+00 -9.096226e-02 -1.626316e-02)
(7.784828e+00 -8.963075e-02 -1.790458e-02)
(7.818074e+00 -8.874176e-02 -1.880411e-02)
(7.826413e+00 -8.860111e-02 -1.903856e-02)
(7.832763e+00 -8.854487e-02 -1.919588e-02)
(7.837911e+00 -8.847677e-02 -1.936979e-02)
(7.842488e+00 -8.839912e-02 -1.956628e-02)
(7.846460e+00 -8.833040e-02 -1.975429e-02)
(7.849691e+00 -8.830166e-02 -1.987068e-02)
(7.849388e+00 -8.837625e-02 -1.990537e-02)
(7.841886e+00 -8.857924e-02 -1.982930e-02)
(7.840218e+00 -8.845834e-02 -1.955834e-02)
(7.831860e+00 -8.864887e-02 -1.903665e-02)
(7.828368e+00 -8.879183e-02 -1.847350e-02)
(7.828591e+00 -8.887300e-02 -1.853134e-02)
(7.848819e+00 -8.850708e-02 -1.911769e-02)
(6.408983e+00 -7.765035e-02 -4.377188e-02)
(7.517969e+00 -8.632168e-02 -1.207704e-02)
(7.673372e+00 -9.233560e-02 -1.435249e-02)
(7.760247e+00 -9.075485e-02 -1.558065e-02)
(7.788230e+00 -8.979559e-02 -1.647180e-02)
(7.794507e+00 -8.964003e-02 -1.684859e-02)
(7.799199e+00 -8.958522e-02 -1.714192e-02)
(7.803262e+00 -8.953584e-02 -1.742333e-02)
(7.806713e+00 -8.948998e-02 -1.766527e-02)
(7.809440e+00 -8.944719e-02 -1.787164e-02)
(7.811253e+00 -8.942246e-02 -1.805413e-02)
(7.810952e+00 -8.946580e-02 -1.817003e-02)
(7.804694e+00 -8.962663e-02 -1.810145e-02)
(7.805915e+00 -8.953362e-02 -1.767449e-02)
(7.797634e+00 -8.965199e-02 -1.684665e-02)
(7.794480e+00 -8.973428e-02 -1.620971e-02)
(7.793171e+00 -8.980971e-02 -1.626387e-02)
(7.811257e+00 -8.948490e-02 -1.710574e-02)
(6.445431e+00 -7.994281e-02 -4.044856e-02)
(7.576997e+00 -8.766256e-02 -1.046562e-02)
(7.665515e+00 -9.325710e-02 -1.154095e-02)
(7.735271e+00 -9.150795e-02 -1.233569e-02)
(7.756490e+00 -9.041639e-02 -1.327535e-02)
(7.759592e+00 -9.016670e-02 -1.382018e-02)
(7.761638e+00 -9.006264e-02 -1.424471e-02)
(7.763703e+00 -9.000045e-02 -1.458973e-02)
(7.765812e+00 -8.995699e-02 -1.490208e-02)
(7.767462e+00 -8.990498e-02 -1.518198e-02)
(7.768268e+00 -8.987275e-02 -1.543255e-02)
(7.767722e+00 -8.988826e-02 -1.564212e-02)
(7.763213e+00 -9.002576e-02 -1.560710e-02)
(7.765244e+00 -9.002524e-02 -1.492413e-02)
(7.761133e+00 -9.016541e-02 -1.383720e-02)
(7.762196e+00 -9.027441e-02 -1.283704e-02)
(7.760876e+00 -9.029235e-02 -1.295801e-02)
(7.771061e+00 -9.001832e-02 -1.415215e-02)
(6.483407e+00 -8.188006e-02 -3.682993e-02)
(7.609538e+00 -8.916174e-02 -9.642729e-03)
(7.649470e+00 -9.426585e-02 -8.803288e-03)
(7.718468e+00 -9.198397e-02 -9.415612e-03)
(7.736699e+00 -9.092893e-02 -1.018831e-02)
(7.741136e+00 -9.063793e-02 -1.062971e-02)
(7.743703e+00 -9.044645e-02 -1.103087e-02)
(7.745630e+00 -9.029465e-02 -1.140434e-02)
(7.746713e+00 -9.017195e-02 -1.180838e-02)
(7.747300e+00 -9.008750e-02 -1.219314e-02)
(7.747507e+00 -9.002535e-02 -1.252017e-02)
(7.746498e+00 -9.002810e-02 -1.278088e-02)
(7.742744e+00 -9.014854e-02 -1.273922e-02)
(7.745710e+00 -9.024674e-02 -1.185512e-02)
(7.742997e+00 -9.058590e-02 -1.072626e-02)
(7.743701e+00 -9.085524e-02 -9.824329e-03)
(7.741917e+00 -9.087292e-02 -9.921468e-03)
(7.750498e+00 -9.039882e-02 -1.103990e-02)
(6.522072e+00 -8.375629e-02 -3.292142e-02)
(7.627828e+00 -9.018814e-02 -9.990394e-03)
(7.639970e+00 -9.478041e-02 -6.215038e-03)
(7.706093e+00 -9.267694e-02 -6.764663e-03)
(7.723402e+00 -9.170792e-02 -7.466676e-03)
(7.727536e+00 -9.145768e-02 -7.894743e-03)
(7.730573e+00 -9.129774e-02 -8.289330e-03)
(7.733018e+00 -9.115839e-02 -8.664763e-03)
(7.734835e+00 -9.100649e-02 -9.047441e-03)
(7.735952e+00 -9.087568e-02 -9.403415e-03)
(7.736408e+00 -9.076630e-02 -9.718801e-03)
(7.735674e+00 -9.071105e-02 -9.961682e-03)
(7.731990e+00 -9.084577e-02 -9.920275e-03)
(7.733892e+00 -9.102847e-02 -9.152157e-03)
(7.729051e+00 -9.141626e-02 -8.042751e-03)
(7.730116e+00 -9.161629e-02 -7.291142e-03)
(7.727981e+00 -9.165425e-02 -7.371910e-03)
(7.737054e+00 -9.122173e-02 -8.413010e-03)
(6.560347e+00 -8.526147e-02 -2.986655e-02)
(7.635903e+00 -9.097432e-02 -1.027186e-02)
(7.641008e+00 -9.513917e-02 -4.268501e-03)
(7.698843e+00 -9.320664e-02 -5.027445e-03)
(7.714600e+00 -9.235259e-02 -5.822702e-03)
(7.717918e+00 -9.213513e-02 -6.239909e-03)
(7.719763e+00 -9.199490e-02 -6.594100e-03)
(7.721390e+00 -9.186633e-02 -6.935487e-03)
(7.722757e+00 -9.175355e-02 -7.246943e-03)
(7.723644e+00 -9.166516e-02 -7.532497e-03)
(7.724046e+00 -9.159413e-02 -7.792419e-03)
(7.723034e+00 -9.157845e-02 -7.977530e-03)
(7.718654e+00 -9.173519e-02 -7.882069e-03)
(7.721153e+00 -9.181997e-02 -7.285902e-03)
(7.719070e+00 -9.206986e-02 -6.400169e-03)
(7.721782e+00 -9.217686e-02 -5.724243e-03)
(7.720174e+00 -9.218319e-02 -5.818130e-03)
(7.727426e+00 -9.184228e-02 -6.757390e-03)
(6.596939e+00 -8.592452e-02 -2.741876e-02)
(7.636579e+00 -9.188542e-02 -1.066824e-02)
(7.642892e+00 -9.543324e-02 -3.079927e-03)
(7.696191e+00 -9.355924e-02 -3.740624e-03)
(7.708945e+00 -9.284499e-02 -4.433928e-03)
(7.711034e+00 -9.263244e-02 -4.878460e-03)
(7.711987e+00 -9.247789e-02 -5.246035e-03)
(7.712996e+00 -9.232643e-02 -5.594985e-03)
(7.714146e+00 -9.218997e-02 -5.906059e-03)
(7.715179e+00 -9.207144e-02 -6.197029e-03)
(7.715987e+00 -9.198191e-02 -6.458715e-03)
(7.715171e+00 -9.196932e-02 -6.625148e-03)
(7.710499e+00 -9.212797e-02 -6.510662e-03)
(7.712471e+00 -9.228277e-02 -5.951083e-03)
(7.711612e+00 -9.257546e-02 -5.037600e-03)
(7.716171e+00 -9.268407e-02 -4.300535e-03)
(7.714340e+00 -9.269659e-02 -4.397920e-03)
(7.720078e+00 -9.229225e-02 -5.416263e-03)
(6.633972e+00 -8.622364e-02 -2.514367e-02)
(7.631249e+00 -9.299092e-02 -9.635767e-03)
(7.640487e+00 -9.581829e-02 -2.009359e-03)
(7.693704e+00 -9.394840e-02 -2.626048e-03)
(7.704206e+00 -9.332985e-02 -3.218295e-03)
(7.706352e+00 -9.313993e-02 -3.622223e-03)
(7.707713e+00 -9.298167e-02 -3.967893e-03)
(7.708567e+00 -9.281762e-02 -4.309602e-03)
(7.709433e+00 -9.266257e-02 -4.643774e-03)
(7.710218e+00 -9.252855e-02 -4.942291e-03)
(7.710588e+00 -9.242481e-02 -5.205405e-03)
(7.709506e+00 -9.239817e-02 -5.377981e-03)
(7.704595e+00 -9.259046e-02 -5.267872e-03)
(7.707545e+00 -9.276746e-02 -4.641195e-03)
(7.706959e+00 -9.310880e-02 -3.704790e-03)
(7.711805e+00 -9.313748e-02 -3.078044e-03)
(7.709870e+00 -9.317204e-02 -3.147087e-03)
(7.716132e+00 -9.280988e-02 -4.078559e-03)
(6.672092e+00 -8.630299e-02 -2.335986e-02)
(7.623983e+00 -9.401020e-02 -8.135767e-03)
(7.632967e+00 -9.598245e-02 -6.217503e-04)
(7.689379e+00 -9.420306e-02 -1.643465e-03)
(7.702109e+00 -9.347654e-02 -2.312432e-03)
(7.704103e+00 -9.336554e-02 -2.659215e-03)
(7.704194e+00 -9.333453e-02 -2.917099e-03)
(7.704113e+00 -9.332764e-02 -3.167863e-03)
(7.705175e+00 -9.322200e-02 -3.450082e-03)
(7.706384e+00 -9.310811e-02 -3.713247e-03)
(7.706752e+00 -9.301239e-02 -3.938575e-03)
(7.705563e+00 -9.299088e-02 -4.103228e-03)
(7.700554e+00 -9.318713e-02 -3.987805e-03)
(7.702446e+00 -9.336024e-02 -3.403186e-03)
(7.705136e+00 -9.333016e-02 -2.681537e-03)
(7.711759e+00 -9.320576e-02 -2.171701e-03)
(7.710040e+00 -9.322158e-02 -2.234709e-03)
(7.713773e+00 -9.314386e-02 -2.980196e-03)
(6.716199e+00 -8.672145e-02 -2.166995e-02)
(7.612285e+00 -9.481938e-02 -6.416547e-03)
(7.623625e+00 -9.588265e-02 7.550050e-04)
(7.683852e+00 -9.429926e-02 -7.891193e-04)
(7.699827e+00 -9.362468e-02 -1.451371e-03)
(7.700860e+00 -9.349829e-02 -1.779963e-03)
(7.701351e+00 -9.345949e-02 -2.034941e-03)
(7.701784e+00 -9.343741e-02 -2.270482e-03)
(7.702228e+00 -9.341543e-02 -2.499838e-03)
(7.702514e+00 -9.340508e-02 -2.717358e-03)
(7.702338e+00 -9.341484e-02 -2.902913e-03)
(7.700291e+00 -9.348653e-02 -3.020047e-03)
(7.695392e+00 -9.363145e-02 -2.912554e-03)
(7.699596e+00 -9.349005e-02 -2.413299e-03)
(7.701584e+00 -9.347039e-02 -1.694822e-03)
(7.708382e+00 -9.340873e-02 -1.121643e-03)
(7.706555e+00 -9.341473e-02 -1.166798e-03)
(7.710165e+00 -9.323516e-02 -1.965728e-03)
(6.758752e+00 -8.752616e-02 -2.082775e-02)
(7.597273e+00 -9.528522e-02 -4.341680e-03)
(7.611140e+00 -9.594093e-02 2.047682e-03)
(7.675971e+00 -9.446997e-02 1.081068e-04)
(7.692789e+00 -9.382020e-02 -4.757689e-04)
(7.695437e+00 -9.374454e-02 -7.821330e-04)
(7.695751e+00 -9.370473e-02 -1.019504e-03)
(7.695497e+00 -9.364568e-02 -1.247830e-03)
(7.695331e+00 -9.360398e-02 -1.480009e-03)
(7.694838e+00 -9.358572e-02 -1.713088e-03)
(7.694202e+00 -9.359695e-02 -1.926859e-03)
(7.692268e+00 -9.367282e-02 -2.055186e-03)
(7.687215e+00 -9.380096e-02 -1.910584e-03)
(7.692811e+00 -9.368920e-02 -1.320539e-03)
(7.694966e+00 -9.372426e-02 -5.950543e-04)
(7.699387e+00 -9.358653e-02 -1.884474e-05)
(7.697161e+00 -9.360556e-02 -4.309213e-05)
(7.703788e+00 -9.347557e-02 -7.777727e-04)
(6.796833e+00 -8.882476e-02 -2.132120e-02)
(7.578307e+00 -9.553618e-02 -2.193043e-03)
(7.599385e+00 -9.587618e-02 3.175907e-03)
(7.662557e+00 -9.468000e-02 1.014042e-03)
(7.680919e+00 -9.411223e-02 4.333431e-04)
(7.683049e+00 -9.400202e-02 2.086857e-04)
(7.683792e+00 -9.397532e-02 -1.370444e-05)
(7.684518e+00 -9.396483e-02 -2.411392e-04)
(7.685088e+00 -9.395486e-02 -4.608010e-04)
(7.684962e+00 -9.394115e-02 -6.720519e-04)
(7.684138e+00 -9.393013e-02 -8.496157e-04)
(7.681751e+00 -9.399628e-02 -9.664597e-04)
(7.677364e+00 -9.416644e-02 -8.461092e-04)
(7.681430e+00 -9.405593e-02 -2.525226e-04)
(7.682001e+00 -9.407772e-02 4.586815e-04)
(7.685924e+00 -9.404594e-02 1.013559e-03)
(7.683830e+00 -9.407736e-02 9.909233e-04)
(7.691135e+00 -9.382016e-02 3.620561e-04)
(6.816533e+00 -8.946524e-02 -2.098174e-02)
(7.576862e+00 -9.537969e-02 -8.581610e-04)
(7.590759e+00 -9.573935e-02 4.203020e-03)
(7.653675e+00 -9.495443e-02 2.036275e-03)
(7.670990e+00 -9.450492e-02 1.387505e-03)
(7.673717e+00 -9.441299e-02 1.165570e-03)
(7.674584e+00 -9.435591e-02 9.662538e-04)
(7.675064e+00 -9.429993e-02 7.678565e-04)
(7.675439e+00 -9.424819e-02 5.770350e-04)
(7.675632e+00 -9.422372e-02 3.801435e-04)
(7.674780e+00 -9.421126e-02 2.096032e-04)
(7.672266e+00 -9.427563e-02 9.483208e-05)
(7.667781e+00 -9.443607e-02 2.229122e-04)
(7.671152e+00 -9.443033e-02 7.867825e-04)
(7.671868e+00 -9.448863e-02 1.515226e-03)
(7.679030e+00 -9.439342e-02 2.025864e-03)
(7.677680e+00 -9.436788e-02 2.013018e-03)
(7.682699e+00 -9.412884e-02 1.366906e-03)
(6.782066e+00 -8.761256e-02 -1.684809e-02)
(7.591657e+00 -9.538519e-02 -1.165082e-03)
(7.609011e+00 -9.531507e-02 4.694001e-03)
(7.665873e+00 -9.468799e-02 2.715852e-03)
(7.685226e+00 -9.420964e-02 2.122462e-03)
(7.686589e+00 -9.416368e-02 1.925081e-03)
(7.686516e+00 -9.413054e-02 1.714630e-03)
(7.686375e+00 -9.410184e-02 1.489519e-03)
(7.686432e+00 -9.407602e-02 1.280880e-03)
(7.686643e+00 -9.404651e-02 1.093275e-03)
(7.686053e+00 -9.404308e-02 9.187425e-04)
(7.683506e+00 -9.412293e-02 8.166449e-04)
(7.678682e+00 -9.427213e-02 9.339182e-04)
(7.681959e+00 -9.423286e-02 1.546461e-03)
(7.686190e+00 -9.421862e-02 2.255218e-03)
(7.693985e+00 -9.403250e-02 2.747299e-03)
(7.695475e+00 -9.399545e-02 2.578387e-03)
(7.699438e+00 -9.365181e-02 2.205160e-03)
(6.664774e+00 -8.917016e-02 -2.315480e-02)
(7.631786e+00 -9.512182e-02 -2.260571e-03)
(7.631562e+00 -9.506738e-02 3.400300e-03)
(7.689663e+00 -9.411365e-02 1.875117e-03)
(7.704110e+00 -9.368777e-02 1.174378e-03)
(7.706243e+00 -9.364656e-02 9.481123e-04)
(7.706729e+00 -9.363341e-02 7.311107e-04)
(7.706883e+00 -9.358581e-02 5.531777e-04)
(7.706470e+00 -9.352977e-02 3.785535e-04)
(7.705556e+00 -9.346566e-02 2.146213e-04)
(7.703993e+00 -9.343535e-02 6.404421e-05)
(7.700516e+00 -9.350505e-02 -5.718218e-05)
(7.695602e+00 -9.373281e-02 7.647373e-05)
(7.703660e+00 -9.368810e-02 6.564207e-04)
(7.704327e+00 -9.365427e-02 1.390000e-03)
(7.710994e+00 -9.355854e-02 1.593043e-03)
(7.716012e+00 -9.316963e-02 1.660314e-03)
(7.698652e+00 -9.377603e-02 -6.049507e-05)
(6.326002e+00 -9.191877e-02 -3.109501e-02)
(7.597385e+00 -9.313293e-02 -1.114562e-02)
(7.605257e+00 -9.580596e-02 -3.835809e-04)
(7.653883e+00 -9.495892e-02 -1.027847e-03)
(7.667141e+00 -9.448534e-02 -1.508215e-03)
(7.667804e+00 -9.436911e-02 -1.795660e-03)
(7.667640e+00 -9.432275e-02 -2.042897e-03)
(7.667794e+00 -9.428543e-02 -2.288238e-03)
(7.667852e+00 -9.425873e-02 -2.528266e-03)
(7.668018e+00 -9.425354e-02 -2.748156e-03)
(7.667325e+00 -9.428602e-02 -2.934375e-03)
(7.664191e+00 -9.438790e-02 -3.025925e-03)
(7.659280e+00 -9.448047e-02 -2.735931e-03)
(7.670636e+00 -9.424698e-02 -1.967485e-03)
(7.674453e+00 -9.422865e-02 -1.369314e-03)
(7.678567e+00 -9.412678e-02 -1.228910e-03)
(7.658802e+00 -9.458942e-02 -2.420006e-03)
(7.630877e+00 -9.499080e-02 -3.495224e-03)
(6.296456e+00 -8.435614e-02 -4.281376e-02)
(7.651719e+00 -9.197067e-02 -9.165901e-03)
(7.655211e+00 -9.489690e-02 -3.044320e-03)
(7.681426e+00 -9.436292e-02 -2.386843e-03)
(7.688739e+00 -9.395257e-02 -2.693008e-03)
(7.689855e+00 -9.386544e-02 -2.991920e-03)
(7.690665e+00 -9.381363e-02 -3.282222e-03)
(7.691091e+00 -9.375662e-02 -3.554608e-03)
(7.691691e+00 -9.365686e-02 -3.823933e-03)
(7.692487e+00 -9.352013e-02 -4.102209e-03)
(7.692429e+00 -9.343554e-02 -4.354042e-03)
(7.689033e+00 -9.351249e-02 -4.430946e-03)
(7.682994e+00 -9.383679e-02 -4.008419e-03)
(7.694204e+00 -9.373852e-02 -3.045649e-03)
(7.698654e+00 -9.363999e-02 -2.442830e-03)
(7.702729e+00 -9.356770e-02 -2.548618e-03)
(7.693604e+00 -9.375655e-02 -3.963267e-03)
(7.649830e+00 -9.394090e-02 -6.473016e-03)
(6.269045e+00 -8.087759e-02 -4.545596e-02)
(7.684910e+00 -9.115882e-02 -9.110091e-03)
(7.674932e+00 -9.448892e-02 -3.053768e-03)
(7.695678e+00 -9.399373e-02 -2.187970e-03)
(7.703253e+00 -9.352735e-02 -2.514429e-03)
(7.704383e+00 -9.342300e-02 -2.809230e-03)
(7.704475e+00 -9.339583e-02 -3.067002e-03)
(7.704622e+00 -9.337027e-02 -3.327163e-03)
(7.705528e+00 -9.325071e-02 -3.611400e-03)
(7.706315e+00 -9.312504e-02 -3.856818e-03)
(7.706317e+00 -9.304321e-02 -4.077529e-03)
(7.702772e+00 -9.313426e-02 -4.155071e-03)
(7.695927e+00 -9.348063e-02 -3.759820e-03)
(7.708238e+00 -9.334218e-02 -2.872107e-03)
(7.712544e+00 -9.322310e-02 -2.302514e-03)
(7.718178e+00 -9.313177e-02 -2.439444e-03)
(7.712431e+00 -9.327255e-02 -3.950126e-03)
(7.671865e+00 -9.338329e-02 -6.318846e-03)
(6.283571e+00 -8.063779e-02 -4.489058e-02)
(7.695725e+00 -9.102708e-02 -9.234152e-03)
(7.675459e+00 -9.450671e-02 -2.282851e-03)
(7.695235e+00 -9.397115e-02 -1.676038e-03)
(7.703774e+00 -9.345952e-02 -2.046189e-03)
(7.705181e+00 -9.335314e-02 -2.321482e-03)
(7.705520e+00 -9.332015e-02 -2.566512e-03)
(7.705789e+00 -9.330609e-02 -2.800688e-03)
(7.706119e+00 -9.329033e-02 -3.018505e-03)
(7.706933e+00 -9.322488e-02 -3.243958e-03)
(7.706907e+00 -9.318181e-02 -3.453508e-03)
(7.703213e+00 -9.329246e-02 -3.539653e-03)
(7.695998e+00 -9.360640e-02 -3.196059e-03)
(7.708539e+00 -9.331534e-02 -2.402563e-03)
(7.712485e+00 -9.322532e-02 -1.826823e-03)
(7.718866e+00 -9.310830e-02 -2.004866e-03)
(7.712327e+00 -9.338508e-02 -3.275732e-03)
(7.676523e+00 -9.345853e-02 -5.606006e-03)
(6.299387e+00 -8.189621e-02 -4.319163e-02)
(7.696268e+00 -9.068546e-02 -9.185159e-03)
(7.666003e+00 -9.459587e-02 -1.416869e-03)
(7.690721e+00 -9.404931e-02 -1.129645e-03)
(7.701156e+00 -9.363360e-02 -1.472197e-03)
(7.701195e+00 -9.352261e-02 -1.739249e-03)
(7.701373e+00 -9.348640e-02 -1.988775e-03)
(7.701924e+00 -9.346672e-02 -2.222685e-03)
(7.702454e+00 -9.345309e-02 -2.448431e-03)
(7.703086e+00 -9.343568e-02 -2.657542e-03)
(7.702749e+00 -9.344990e-02 -2.836865e-03)
(7.699057e+00 -9.356870e-02 -2.913737e-03)
(7.692501e+00 -9.375105e-02 -2.628420e-03)
(7.704855e+00 -9.344807e-02 -1.853015e-03)
(7.710223e+00 -9.337642e-02 -1.260086e-03)
(7.717126e+00 -9.324657e-02 -1.436930e-03)
(7.710785e+00 -9.347351e-02 -2.642628e-03)
(7.676807e+00 -9.371598e-02 -4.735395e-03)
(6.325556e+00 -8.448458e-02 -3.969837e-02)
(7.641409e+00 -9.162436e-02 -8.224640e-03)
(7.632120e+00 -9.480153e-02 -3.656891e-04)
(7.666349e+00 -9.471299e-02 -4.034938e-04)
(7.682097e+00 -9.431356e-02 -6.118443e-04)
(7.683210e+00 -9.422523e-02 -8.318487e-04)
(7.683464e+00 -9.417953e-02 -1.049560e-03)
(7.684571e+00 -9.416637e-02 -1.285817e-03)
(7.686560e+00 -9.415181e-02 -1.539222e-03)
(7.688888e+00 -9.409513e-02 -1.832190e-03)
(7.690206e+00 -9.401032e-02 -2.096774e-03)
(7.686941e+00 -9.407755e-02 -2.200818e-03)
(7.680749e+00 -9.429323e-02 -1.886379e-03)
(7.692963e+00 -9.397913e-02 -1.057188e-03)
(7.697835e+00 -9.385404e-02 -5.675054e-04)
(7.705162e+00 -9.372206e-02 -7.192818e-04)
(7.702675e+00 -9.397385e-02 -1.887805e-03)
(7.671077e+00 -9.418794e-02 -3.781651e-03)
(6.360680e+00 -9.549126e-02 -3.247440e-02)
(7.565576e+00 -9.569536e-02 -5.202937e-03)
(7.527716e+00 -9.534826e-02 2.128572e-03)
(7.594400e+00 -9.567615e-02 1.491786e-03)
(7.616540e+00 -9.558909e-02 1.239418e-03)
(7.619123e+00 -9.557705e-02 9.808574e-04)
(7.619919e+00 -9.552532e-02 6.991695e-04)
(7.623328e+00 -9.540757e-02 3.726828e-04)
(7.633833e+00 -9.512479e-02 -2.051457e-04)
(7.646689e+00 -9.470395e-02 -1.056704e-03)
(7.657445e+00 -9.427261e-02 -1.923475e-03)
(7.659300e+00 -9.415377e-02 -2.371736e-03)
(7.652844e+00 -9.434242e-02 -2.033345e-03)
(7.660571e+00 -9.431203e-02 -9.969779e-04)
(7.663071e+00 -9.449047e-02 -1.763791e-04)
(7.676677e+00 -9.431840e-02 -4.218826e-04)
(7.676018e+00 -9.446985e-02 -2.169154e-03)
(7.637008e+00 -9.501241e-02 -4.138511e-03)
(6.264675e+00 -1.209721e-01 -1.557961e-02)
(7.490290e+00 -9.294097e-02 1.572479e-03)
(7.495149e+00 -9.658906e-02 -8.680289e-05)
(7.564459e+00 -9.504593e-02 -4.108294e-03)
(7.608024e+00 -9.450114e-02 -5.195671e-03)
(7.613574e+00 -9.451800e-02 -5.412547e-03)
(7.617638e+00 -9.442818e-02 -5.716207e-03)
(7.628169e+00 -9.429449e-02 -6.284034e-03)
(7.648938e+00 -9.336659e-02 -7.380681e-03)
(7.644971e+00 -9.229177e-02 -8.648536e-03)
(7.637606e+00 -9.148539e-02 -8.590939e-03)
(7.625543e+00 -9.105830e-02 -8.549408e-03)
(7.632043e+00 -9.107343e-02 -8.467593e-03)
(7.644748e+00 -9.082061e-02 -8.802168e-03)
(7.661836e+00 -9.059942e-02 -8.779121e-03)
(7.667346e+00 -9.020148e-02 -9.222844e-03)
(7.645990e+00 -9.044427e-02 -8.634233e-03)
(7.575725e+00 -9.094221e-02 -9.192924e-03)
(5.808424e+00 -7.968962e-02 -8.443222e-02)
(6.422874e+00 -1.205902e-01 -6.653517e-04)
(6.732927e+00 -9.450737e-02 -1.892181e-02)
(6.748125e+00 -8.858916e-02 -2.177771e-02)
(6.692038e+00 -8.730240e-02 -2.242126e-02)
(6.668895e+00 -8.697447e-02 -2.256887e-02)
(6.649907e+00 -8.676668e-02 -2.295029e-02)
(6.625009e+00 -8.607130e-02 -2.376690e-02)
(6.580742e+00 -8.642248e-02 -2.668273e-02)
(6.482083e+00 -8.673567e-02 -3.106864e-02)
(6.416600e+00 -8.565452e-02 -3.560570e-02)
(6.382443e+00 -8.344425e-02 -3.812593e-02)
(6.381980e+00 -8.235333e-02 -3.887849e-02)
(6.380672e+00 -8.317120e-02 -3.819159e-02)
(6.391209e+00 -8.341494e-02 -3.728624e-02)
(6.371429e+00 -8.353580e-02 -3.758065e-02)
(6.370305e+00 -8.199787e-02 -3.847363e-02)
(6.337729e+00 -8.396195e-02 -3.874562e-02)
(3.304350e+00 3.823908e-02 -1.128062e-01)
(3.053504e+00 7.653310e-03 2.362691e-04)
(3.258774e+00 7.938489e-03 1.784486e-02)
(3.086319e+00 1.541385e-02 1.989386e-02)
(3.080040e+00 1.545031e-02 1.851548e-02)
(3.082674e+00 1.519011e-02 1.838395e-02)
(3.083731e+00 1.500207e-02 1.836629e-02)
(3.084228e+00 1.482011e-02 1.837981e-02)
(3.084611e+00 1.464086e-02 1.840073e-02)
(3.084628e+00 1.448281e-02 1.842942e-02)
(3.084670e+00 1.432312e-02 1.845735e-02)
(3.084732e+00 1.415897e-02 1.848570e-02)
(3.084786e+00 1.399116e-02 1.851343e-02)
(3.084821e+00 1.381901e-02 1.854193e-02)
(3.084828e+00 1.364588e-02 1.857015e-02)
(3.084822e+00 1.349325e-02 1.860057e-02)
(3.084606e+00 1.335112e-02 1.862677e-02)
(3.084531e+00 1.320771e-02 1.865922e-02)
(3.084541e+00 1.307586e-02 1.866930e-02)
(3.084573e+00 1.294049e-02 1.867791e-02)
(3.084693e+00 1.280013e-02 1.868515e-02)
(3.084833e+00 1.266189e-02 1.868259e-02)
(3.084971e+00 1.252552e-02 1.867527e-02)
(3.085049e+00 1.238909e-02 1.866891e-02)
(3.085040e+00 1.225476e-02 1.866215e-02)
(3.084954e+00 1.212457e-02 1.867196e-02)
(3.084587e+00 1.200205e-02 1.870076e-02)
(3.084090e+00 1.187912e-02 1.872464e-02)
(3.083508e+00 1.175418e-02 1.874887e-02)
(3.082891e+00 1.163168e-02 1.877356e-02)
(3.082214e+00 1.151338e-02 1.879939e-02)
(3.081670e+00 1.138469e-02 1.882267e-02)
(3.080960e+00 1.126683e-02 1.886781e-02)
(3.080120e+00 1.115361e-02 1.891236e-02)
(3.078915e+00 1.106350e-02 1.895078e-02)
(3.076860e+00 1.101569e-02 1.899954e-02)
(3.074870e+00 1.097548e-02 1.907008e-02)
(3.072547e+00 1.096662e-02 1.912288e-02)
(3.070018e+00 1.097069e-02 1.916510e-02)
(3.067428e+00 1.097124e-02 1.921179e-02)
(3.064457e+00 1.097048e-02 1.927347e-02)
(3.061126e+00 1.096567e-02 1.936608e-02)
(3.057883e+00 1.096326e-02 1.945840e-02)
(3.054512e+00 1.098495e-02 1.962376e-02)
(3.050994e+00 1.101189e-02 1.980959e-02)
(3.047527e+00 1.103856e-02 1.998570e-02)
(3.044031e+00 1.107421e-02 2.016366e-02)
(3.040451e+00 1.111577e-02 2.033823e-02)
(3.037006e+00 1.116127e-02 2.048453e-02)
(3.033553e+00 1.120691e-02 2.062911e-02)
(3.029947e+00 1.124527e-02 2.076940e-02)
(3.026363e+00 1.128159e-02 2.091239e-02)
(3.022684e+00 1.131979e-02 2.105849e-02)
(3.018480e+00 1.138559e-02 2.120630e-02)
(3.014213e+00 1.146307e-02 2.135670e-02)
(3.009924e+00 1.154237e-02 2.150675e-02)
(3.005629e+00 1.162083e-02 2.165622e-02)
(3.001257e+00 1.170752e-02 2.182714e-02)
(2.996931e+00 1.179637e-02 2.201009e-02)
(2.992775e+00 1.187882e-02 2.218633e-02)
(2.988859e+00 1.194830e-02 2.236382e-02)
(2.984915e+00 1.201354e-02 2.258120e-02)
(2.981140e+00 1.206596e-02 2.279353e-02)
(2.977507e+00 1.211115e-02 2.298699e-02)
(2.973757e+00 1.217299e-02 2.317761e-02)
(2.970034e+00 1.223840e-02 2.337041e-02)
(2.966460e+00 1.230114e-02 2.354563e-02)
(2.962821e+00 1.236203e-02 2.371727e-02)
(2.958629e+00 1.243681e-02 2.390577e-02)
(2.954431e+00 1.251009e-02 2.408413e-02)
(2.950359e+00 1.260389e-02 2.430298e-02)
(2.945960e+00 1.274271e-02 2.452267e-02)
(2.940978e+00 1.291576e-02 2.474718e-02)
(2.935918e+00 1.309697e-02 2.496695e-02)
(2.930940e+00 1.328121e-02 2.513967e-02)
(2.925885e+00 1.349038e-02 2.527623e-02)
(2.920674e+00 1.371889e-02 2.539947e-02)
(2.915067e+00 1.396655e-02 2.553957e-02)
(2.909139e+00 1.425151e-02 2.574059e-02)
(2.903195e+00 1.454915e-02 2.596006e-02)
(2.897252e+00 1.484773e-02 2.618481e-02)
(2.891499e+00 1.513408e-02 2.639658e-02)
(2.885584e+00 1.543861e-02 2.655649e-02)
(2.879345e+00 1.574598e-02 2.671520e-02)
(2.873159e+00 1.602227e-02 2.686470e-02)
(2.866355e+00 1.626702e-02 2.699280e-02)
(2.859419e+00 1.648271e-02 2.722553e-02)
(2.852650e+00 1.669161e-02 2.742804e-02)
(2.846081e+00 1.689885e-02 2.763348e-02)
(2.839255e+00 1.711300e-02 2.785394e-02)
(2.832158e+00 1.735464e-02 2.807184e-02)
(2.824866e+00 1.759227e-02 2.829779e-02)
(2.817357e+00 1.782864e-02 2.852471e-02)
(2.809876e+00 1.805678e-02 2.873471e-02)
(2.802098e+00 1.830745e-02 2.893953e-02)
(2.793867e+00 1.856154e-02 2.914641e-02)
(2.785362e+00 1.882914e-02 2.925676e-02)
(2.776326e+00 1.911073e-02 2.934032e-02)
(2.766820e+00 1.943944e-02 2.941602e-02)
(2.757067e+00 1.980112e-02 2.949897e-02)
(2.747088e+00 2.017548e-02 2.960921e-02)
(2.736771e+00 2.058321e-02 2.970627e-02)
(2.725904e+00 2.104289e-02 2.975861e-02)
(2.714861e+00 2.150068e-02 2.978896e-02)
(2.704363e+00 2.190023e-02 2.987421e-02)
(2.693810e+00 2.229817e-02 2.999415e-02)
(2.683218e+00 2.269855e-02 3.009822e-02)
(2.672298e+00 2.309669e-02 3.019652e-02)
(2.661019e+00 2.348140e-02 3.028287e-02)
(2.649211e+00 2.389045e-02 3.039344e-02)
(2.636838e+00 2.426760e-02 3.047534e-02)
(2.622953e+00 2.464548e-02 3.042854e-02)
(2.609058e+00 2.496943e-02 3.035807e-02)
(2.594775e+00 2.526349e-02 3.032839e-02)
(2.580291e+00 2.556749e-02 3.027937e-02)
(2.565439e+00 2.588025e-02 3.019499e-02)
(2.550539e+00 2.617009e-02 3.008962e-02)
(2.535997e+00 2.645066e-02 2.995478e-02)
(2.522113e+00 2.667930e-02 2.979339e-02)
(2.508760e+00 2.685704e-02 2.964807e-02)
(2.495270e+00 2.697119e-02 2.953828e-02)
(2.482293e+00 2.705560e-02 2.939262e-02)
(2.469682e+00 2.714946e-02 2.921286e-02)
(2.456764e+00 2.720452e-02 2.899547e-02)
(2.443975e+00 2.719404e-02 2.876827e-02)
(2.431034e+00 2.713505e-02 2.845538e-02)
(2.417695e+00 2.707494e-02 2.793929e-02)
(2.403849e+00 2.701702e-02 2.744080e-02)
(2.390219e+00 2.695326e-02 2.695198e-02)
(2.377211e+00 2.685975e-02 2.650439e-02)
(2.364658e+00 2.678728e-02 2.598125e-02)
(2.351610e+00 2.672639e-02 2.541450e-02)
(2.338378e+00 2.663286e-02 2.477635e-02)
(2.325646e+00 2.647445e-02 2.413679e-02)
(2.313208e+00 2.626982e-02 2.354913e-02)
(2.301589e+00 2.606309e-02 2.305746e-02)
(2.289405e+00 2.573832e-02 2.247947e-02)
(2.278151e+00 2.531405e-02 2.186720e-02)
(2.267194e+00 2.488217e-02 2.127641e-02)
(2.256014e+00 2.444209e-02 2.071361e-02)
(2.245631e+00 2.394116e-02 2.013113e-02)
(2.236245e+00 2.339361e-02 1.952126e-02)
(2.227805e+00 2.277778e-02 1.889108e-02)
(2.221168e+00 2.208812e-02 1.816302e-02)
(2.216645e+00 2.137490e-02 1.725416e-02)