/*--------------------------------*- C++ -*----------------------------------*\
| =========                 |                                                 |
| \\      /  F ield         | OpenFOAM: The Open Source CFD Toolbox           |
|  \\    /   O peration     | Version:  v2406                                 |
|   \\  /    A nd           | Website:  www.openfoam.com                      |
|    \\/     M anipulation  |                                                 |
\*---------------------------------------------------------------------------*/
FoamFile
{
    version     2.0;
    format      ascii;
    class       volScalarField;
    location    "predicted";
    object      epsilon;
}
// * * * * * * * * * * * * * * * * * * * * * * * * * * * * * * * * * * * * * //

dimensions      [0 2 -3 0 0 0 0];

internalField   nonuniform List<scalar>
49181
(
2.832162e+03
1.829744e+03
1.544814e+03
1.892841e+03
2.029545e+03
2.086794e+03
2.129883e+03
2.162820e+03
2.173444e+03
2.155509e+03
2.142895e+03
2.143023e+03
2.134315e+03
2.104914e+03
2.059682e+03
2.025606e+03
2.146547e+03
2.137696e+03
1.793568e+03
5.032888e+02
4.437809e+02
6.344831e+02
7.354927e+02
8.101791e+02
8.785725e+02
9.555388e+02
1.036944e+03
1.113611e+03
1.165537e+03
1.198323e+03
1.164158e+03
1.061831e+03
9.299403e+02
8.442588e+02
8.925540e+02
1.150418e+03
1.420633e+03
3.487581e+02
2.066760e+02
2.175416e+02
2.676181e+02
3.140698e+02
3.600045e+02
4.144079e+02
4.899164e+02
5.659777e+02
6.339072e+02
6.666446e+02
6.345050e+02
5.066008e+02
3.671931e+02
2.997593e+02
3.144211e+02
4.474098e+02
1.707763e+03
3.897031e+02
1.442690e+02
1.525928e+02
1.835325e+02
2.143686e+02
2.475519e+02
2.826904e+02
3.214732e+02
3.670612e+02
4.019945e+02
4.257518e+02
4.013444e+02
3.173471e+02
2.252399e+02
1.800725e+02
1.863860e+02
2.623017e+02
1.766549e+03
3.415445e+02
1.044216e+02
1.043199e+02
1.260313e+02
1.449950e+02
1.631087e+02
1.828817e+02
2.036272e+02
2.220476e+02
2.426973e+02
2.525290e+02
2.423271e+02
1.958182e+02
1.449536e+02
1.159210e+02
1.196730e+02
1.618002e+02
1.738722e+03
2.778200e+02
7.269203e+01
6.456100e+01
7.433482e+01
8.404345e+01
9.509982e+01
1.072978e+02
1.187202e+02
1.283704e+02
1.364461e+02
1.431038e+02
1.403529e+02
1.144752e+02
8.233893e+01
6.497252e+01
6.671069e+01
9.162103e+01
1.690826e+03
2.175620e+02
4.719086e+01
3.734900e+01
4.110702e+01
4.515584e+01
4.921697e+01
5.317243e+01
5.704714e+01
6.138581e+01
6.686186e+01
7.229374e+01
7.245110e+01
5.619425e+01
4.255952e+01
3.340999e+01
3.485375e+01
4.416443e+01
1.631161e+03
1.662482e+02
2.891493e+01
1.744673e+01
1.642006e+01
1.779867e+01
1.925098e+01
2.108439e+01
2.304692e+01
2.479614e+01
2.702882e+01
3.037292e+01
3.246092e+01
2.368183e+01
1.529688e+01
9.500372e+00
1.092709e+01
1.512586e+01
1.562431e+03
1.278693e+02
1.421423e+01
1.725745e+00
-1.643720e+00
-1.796123e+00
-1.207566e+00
-4.112519e-01
7.907473e-01
2.005308e+00
3.264978e+00
5.548765e+00
8.034964e+00
1.591397e+00
-3.592143e+00
-7.760208e+00
-6.098328e+00
-3.998125e+00
1.482908e+03
1.014680e+02
1.954765e+00
-1.106960e+01
-1.499460e+01
-1.560982e+01
-1.536286e+01
-1.446012e+01
-1.349578e+01
-1.250231e+01
-1.136425e+01
-9.257896e+00
-6.765283e+00
-1.248856e+01
-1.674034e+01
-1.935907e+01
-1.750218e+01
-1.653490e+01
1.404994e+03
8.054543e+01
-6.508586e+00
-1.848528e+01
-2.216787e+01
-2.233167e+01
-2.228065e+01
-2.203227e+01
-2.156535e+01
-2.101896e+01
-2.036597e+01
-1.874346e+01
-1.617132e+01
-2.090166e+01
-2.306705e+01
-2.568109e+01
-2.401963e+01
-2.353480e+01
1.333037e+03
7.009875e+01
-1.210182e+01
-2.294149e+01
-2.580902e+01
-2.587192e+01
-2.566128e+01
-2.593084e+01
-2.567699e+01
-2.500591e+01
-2.413565e+01
-2.301861e+01
-2.104082e+01
-2.545305e+01
-2.655649e+01
-2.895654e+01
-2.743539e+01
-2.757864e+01
1.268789e+03
6.284328e+01
-1.558098e+01
-2.533881e+01
-2.774218e+01
-2.806392e+01
-2.815996e+01
-2.819538e+01
-2.815853e+01
-2.791077e+01
-2.717115e+01
-2.609079e+01
-2.449762e+01
-2.790290e+01
-2.875160e+01
-3.087838e+01
-2.951249e+01
-3.015625e+01
1.213391e+03
5.727481e+01
-1.779567e+01
-2.705783e+01
-2.875329e+01
-2.942675e+01
-2.986763e+01
-3.003280e+01
-2.999209e+01
-2.981489e+01
-2.952959e+01
-2.874587e+01
-2.702169e+01
-2.977521e+01
-3.040555e+01
-3.197335e+01
-3.068529e+01
-3.219157e+01
1.164034e+03
5.415606e+01
-1.955097e+01
-2.846586e+01
-2.959528e+01
-3.033568e+01
-3.087402e+01
-3.142382e+01
-3.146741e+01
-3.142109e+01
-3.114604e+01
-3.055311e+01
-2.859929e+01
-3.133378e+01
-3.156307e+01
-3.318812e+01
-3.175969e+01
-3.343475e+01
1.113931e+03
5.269882e+01
-2.088096e+01
-2.922574e+01
-3.065598e+01
-3.107717e+01
-3.177097e+01
-3.212047e+01
-3.253361e+01
-3.272512e+01
-3.252797e+01
-3.178517e+01
-3.001317e+01
-3.255161e+01
-3.229901e+01
-3.390438e+01
-3.247912e+01
-3.434258e+01
1.068749e+03
5.163543e+01
-2.103613e+01
-2.797331e+01
-3.013968e+01
-3.100067e+01
-3.140621e+01
-3.158742e+01
-3.205680e+01
-3.267538e+01
-3.300531e+01
-3.292195e+01
-3.113125e+01
-3.205615e+01
-3.227852e+01
-3.371607e+01
-3.235347e+01
-3.416713e+01
1.025396e+03
5.073642e+01
-1.994448e+01
-2.672318e+01
-2.944932e+01
-3.036620e+01
-3.093388e+01
-3.112118e+01
-3.123210e+01
-3.123780e+01
-3.127459e+01
-3.130580e+01
-2.930209e+01
-3.140383e+01
-3.149414e+01
-3.248324e+01
-3.091137e+01
-3.361914e+01
1.003864e+03
5.138039e+01
-1.940109e+01
-2.606810e+01
-2.877782e+01
-2.977114e+01
-3.031762e+01
-3.059086e+01
-3.078620e+01
-3.069590e+01
-3.045007e+01
-2.994760e+01
-2.825311e+01
-3.047068e+01
-2.972508e+01
-2.974938e+01
-2.826392e+01
-3.200222e+01
1.083150e+03
5.740651e+01
-2.083799e+01
-2.790403e+01
-3.013799e+01
-3.114728e+01
-3.185267e+01
-3.219816e+01
-3.241108e+01
-3.261825e+01
-3.251965e+01
-3.191402e+01
-2.996194e+01
-3.151591e+01
-3.031014e+01
-3.045274e+01
-2.970023e+01
-3.415870e+01
1.217707e+03
6.396904e+01
-1.950236e+01
-3.209113e+01
-3.439713e+01
-3.531692e+01
-3.578910e+01
-3.607264e+01
-3.604173e+01
-3.593307e+01
-3.562381e+01
-3.485030e+01
-3.254873e+01
-3.526193e+01
-3.501117e+01
-3.587011e+01
-3.613162e+01
-3.533768e+01
1.478894e+03
1.103694e+02
-4.137729e+00
-2.281243e+01
-2.583465e+01
-2.611451e+01
-2.648664e+01
-2.688490e+01
-2.728515e+01
-2.701016e+01
-2.654767e+01
-2.549308e+01
-2.382446e+01
-2.787736e+01
-2.792779e+01
-2.859724e+01
-2.430252e+01
-1.737810e+01
1.576386e+03
1.633898e+02
-2.063157e-01
-2.371939e+01
-2.698154e+01
-2.752739e+01
-2.802962e+01
-2.811330e+01
-2.800723e+01
-2.792256e+01
-2.753642e+01
-2.639366e+01
-2.495162e+01
-3.013276e+01
-3.076283e+01
-3.085439e+01
-2.584683e+01
-1.381900e+01
1.674992e+03
1.829592e+02
-2.212024e+00
-2.620384e+01
-2.953491e+01
-3.022292e+01
-3.080346e+01
-3.110497e+01
-3.110669e+01
-3.104887e+01
-3.066614e+01
-2.960395e+01
-2.808833e+01
-3.324660e+01
-3.345340e+01
-3.368605e+01
-2.917516e+01
-1.851961e+01
1.701195e+03
1.710484e+02
-4.334647e+00
-2.766099e+01
-3.084601e+01
-3.139210e+01
-3.179702e+01
-3.219109e+01
-3.241123e+01
-3.231587e+01
-3.191162e+01
-3.097917e+01
-2.951163e+01
-3.432072e+01
-3.434359e+01
-3.495647e+01
-3.065705e+01
-2.189816e+01
1.701041e+03
1.568353e+02
-5.453644e+00
-2.830345e+01
-3.138022e+01
-3.172524e+01
-3.227139e+01
-3.262950e+01
-3.290271e+01
-3.298678e+01
-3.265201e+01
-3.169412e+01
-3.027340e+01
-3.453670e+01
-3.456002e+01
-3.552331e+01
-3.163891e+01
-2.429720e+01
1.645074e+03
1.444978e+02
-2.342629e+00
-2.592229e+01
-3.066724e+01
-3.122123e+01
-3.143003e+01
-3.170404e+01
-3.200658e+01
-3.175850e+01
-3.136505e+01
-3.028840e+01
-2.900871e+01
-3.413541e+01
-3.518914e+01
-3.616351e+01
-3.246332e+01
-2.397657e+01
1.400492e+03
1.298629e+02
1.411092e+01
-1.600431e+01
-2.246635e+01
-2.265225e+01
-2.209398e+01
-2.167698e+01
-2.112700e+01
-1.948130e+01
-1.696948e+01
-1.493485e+01
-1.419528e+01
-2.347208e+01
-2.724316e+01
-3.127447e+01
-2.379966e+01
-1.220089e+01
1.652452e+03
2.278965e+02
6.587125e+01
6.115988e+01
5.964207e+01
6.324624e+01
6.806605e+01
7.304689e+01
7.910714e+01
1.010251e+02
1.276926e+02
1.520985e+02
1.438432e+02
1.173982e+02
9.467361e+01
9.088561e+01
1.068388e+02
1.645441e+02
2.902876e+03
1.592041e+03
9.910994e+02
1.178711e+03
1.309046e+03
1.381491e+03
1.447389e+03
1.527782e+03
1.632587e+03
1.725165e+03
1.814761e+03
1.863618e+03
1.868443e+03
1.831515e+03
1.785988e+03
1.766091e+03
1.796465e+03
1.853163e+03
8.259246e+02
6.034069e+01
-7.435001e+00
-1.618801e+01
-1.442282e+01
-1.283230e+01
-1.149589e+01
-1.026357e+01
-9.155829e+00
-8.110509e+00
-7.232322e+00
-6.500776e+00
-5.775763e+00
-5.194660e+00
-4.687264e+00
-4.371738e+00
-4.118961e+00
-3.908204e+00
-3.678115e+00
-3.466526e+00
-3.270232e+00
-3.047121e+00
-2.648653e+00
-1.937182e+00
-9.400888e-01
1.269663e-02
9.710651e-01
1.952597e+00
3.099509e+00
4.153144e+00
5.192614e+00
6.347455e+00
8.048149e+00
1.029235e+01
1.281938e+01
1.535063e+01
1.787229e+01
2.057079e+01
2.361237e+01
2.716301e+01
3.049946e+01
3.438995e+01
3.843495e+01
4.270712e+01
4.694472e+01
5.101587e+01
5.542798e+01
5.988717e+01
6.359839e+01
6.756089e+01
7.181918e+01
7.661662e+01
8.171830e+01
8.725806e+01
9.238787e+01
9.745399e+01
1.024240e+02
1.071053e+02
1.125507e+02
1.181167e+02
1.237395e+02
1.291460e+02
1.349572e+02
1.409716e+02
1.484341e+02
1.571778e+02
1.662723e+02
1.758750e+02
1.859648e+02
1.965259e+02
2.067678e+02
2.174178e+02
2.286820e+02
2.406543e+02
2.524278e+02
2.644953e+02
2.786066e+02
2.935135e+02
3.089311e+02
3.233830e+02
3.370926e+02
3.503702e+02
3.631127e+02
3.765274e+02
3.895350e+02
4.027069e+02
4.160465e+02
4.297449e+02
4.426066e+02
4.558610e+02
4.699781e+02
4.832224e+02
4.962854e+02
5.091145e+02
5.205675e+02
5.297064e+02
5.376924e+02
5.448247e+02
5.494747e+02
5.530852e+02
5.564239e+02
5.611363e+02
5.659796e+02
5.705453e+02
5.721561e+02
5.730993e+02
5.724667e+02
5.713189e+02
5.690457e+02
5.672632e+02
5.659874e+02
5.635697e+02
5.590477e+02
5.527329e+02
5.451009e+02
5.372200e+02
5.308224e+02
5.235919e+02
5.180012e+02
5.146505e+02
5.106989e+02
5.066391e+02
5.022387e+02
4.963433e+02
4.893526e+02
4.821782e+02
4.745551e+02
4.672995e+02
4.599409e+02
4.527348e+02
4.446789e+02
4.364572e+02
4.281245e+02
4.201426e+02
4.128648e+02
4.064588e+02
4.004274e+02
3.942715e+02
3.884458e+02
3.825524e+02
3.763762e+02
3.706306e+02
3.649862e+02
3.597359e+02
3.548229e+02
3.503628e+02
3.457960e+02
3.406070e+02
3.350122e+02
3.291366e+02
3.237340e+02
3.179204e+02
3.117611e+02
3.062291e+02
3.006244e+02
2.952068e+02
2.898013e+02
2.853511e+02
2.809919e+02
2.764389e+02
2.720339e+02
2.673095e+02
2.621923e+02
2.572012e+02
2.522926e+02
2.484170e+02
2.449777e+02
2.416206e+02
2.386348e+02
2.358473e+02
2.329846e+02
2.301825e+02
2.276067e+02
2.300658e+02
2.585402e+02
3.335616e+02
4.253540e+02
4.966766e+02
4.766132e+02
4.380480e+02
7.723521e+01
-5.966629e+01
-6.622335e+01
-6.622567e+01
-6.535681e+01
-6.380638e+01
-6.202838e+01
-6.027590e+01
-5.850123e+01
-5.678818e+01
-5.508069e+01
-5.338596e+01
-5.172070e+01
-5.006321e+01
-4.842479e+01
-4.682827e+01
-4.553513e+01
-4.428327e+01
-4.319406e+01
-4.233046e+01
-4.173032e+01
-4.135344e+01
-4.099343e+01
-4.057934e+01
-4.019411e+01
-3.993950e+01
-3.961916e+01
-3.938375e+01
-3.901679e+01
-3.857458e+01
-3.797563e+01
-3.708910e+01
-3.603597e+01
-3.485345e+01
-3.353281e+01
-3.216974e+01
-3.069037e+01
-2.920394e+01
-2.800111e+01
-2.680526e+01
-2.504458e+01
-2.274042e+01
-2.032792e+01
-1.795992e+01
-1.526685e+01
-1.241040e+01
-9.307579e+00
-6.170936e+00
-3.156464e+00
8.283998e-02
3.446929e+00
7.001404e+00
1.028668e+01
1.365582e+01
1.662432e+01
1.978240e+01
2.323674e+01
2.699870e+01
3.141049e+01
3.590219e+01
4.094593e+01
4.621424e+01
5.149942e+01
5.719561e+01
6.275310e+01
6.822541e+01
7.426953e+01
8.082229e+01
8.816709e+01
9.655657e+01
1.051041e+02
1.138653e+02
1.224460e+02
1.311222e+02
1.404409e+02
1.503915e+02
1.606961e+02
1.713615e+02
1.813534e+02
1.916041e+02
2.022526e+02
2.129367e+02
2.238415e+02
2.345651e+02
2.438803e+02
2.516240e+02
2.595302e+02
2.680368e+02
2.755268e+02
2.822644e+02
2.887450e+02
2.956793e+02
3.021103e+02
3.083962e+02
3.140820e+02
3.178866e+02
3.212499e+02
3.241895e+02
3.264557e+02
3.292107e+02
3.322493e+02
3.335593e+02
3.342306e+02
3.349296e+02
3.342167e+02
3.335788e+02
3.321135e+02
3.306851e+02
3.288242e+02
3.262649e+02
3.241688e+02
3.219146e+02
3.197624e+02
3.171825e+02
3.139810e+02
3.109569e+02
3.085953e+02
3.072456e+02
3.066238e+02
3.059078e+02
3.049828e+02
3.025573e+02
2.992961e+02
2.956174e+02
2.921040e+02
2.891942e+02
2.862423e+02
2.830494e+02
2.799077e+02
2.767417e+02
2.735741e+02
2.711532e+02
2.693581e+02
2.675781e+02
2.659154e+02
2.640937e+02
2.619405e+02
2.592956e+02
2.566134e+02
2.540253e+02
2.509081e+02
2.483420e+02
2.459066e+02
2.427773e+02
2.396553e+02
2.369729e+02
2.346279e+02
2.323424e+02
2.300123e+02
2.275694e+02
2.251241e+02
2.224291e+02
2.195826e+02
2.166159e+02
2.132929e+02
2.100336e+02
2.075388e+02
2.055488e+02
2.035665e+02
2.016047e+02
1.992076e+02
1.969787e+02
1.947670e+02
1.927434e+02
1.906070e+02
1.881416e+02
1.859106e+02
1.835895e+02
1.806486e+02
1.776129e+02
1.750343e+02
1.718419e+02
1.674712e+02
1.652262e+02
1.852002e+02
2.461622e+02
2.997958e+02
3.082502e+02
2.862941e+02
3.151962e+02
9.025108e+00
-5.782759e+01
-5.504773e+01
-5.502581e+01
-5.386527e+01
-5.205559e+01
-5.006196e+01
-4.816284e+01
-4.660487e+01
-4.510756e+01
-4.357549e+01
-4.198797e+01
-4.055246e+01
-3.912792e+01
-3.771216e+01
-3.622997e+01
-3.480519e+01
-3.329102e+01
-3.215525e+01
-3.106868e+01
-2.978846e+01
-2.851011e+01
-2.712206e+01
-2.582123e+01
-2.439318e+01
-2.294381e+01
-2.123539e+01
-1.973031e+01
-1.843426e+01
-1.700179e+01
-1.543556e+01
-1.327721e+01
-1.126060e+01
-9.096614e+00
-6.756642e+00
-4.317304e+00
-1.669764e+00
1.188622e+00
4.268990e+00
7.374333e+00
1.065821e+01
1.372504e+01
1.744932e+01
2.126310e+01
2.463871e+01
2.839625e+01
3.247823e+01
3.739379e+01
4.179216e+01
4.575180e+01
4.963780e+01
5.285501e+01
5.606565e+01
5.923820e+01
6.258076e+01
6.604450e+01
7.019440e+01
7.454272e+01
7.923476e+01
8.413772e+01
8.917369e+01
9.414001e+01
9.899073e+01
1.033719e+02
1.074213e+02
1.116982e+02
1.156957e+02
1.193301e+02
1.229188e+02
1.262157e+02
1.296257e+02
1.340276e+02
1.388108e+02
1.439528e+02
1.488789e+02
1.538225e+02
1.580335e+02
1.623256e+02
1.668991e+02
1.711284e+02
1.754298e+02
1.800479e+02
1.848221e+02
1.912264e+02
1.962381e+02
2.004274e+02
2.050373e+02
2.103004e+02
2.157555e+02
2.212647e+02
2.267995e+02
2.316710e+02
2.359563e+02
2.376994e+02
2.385583e+02
2.395248e+02
2.408737e+02
2.423093e+02
2.435766e+02
2.452919e+02
2.472324e+02
2.485060e+02
2.500456e+02
2.511463e+02
2.521400e+02
2.530834e+02
2.529927e+02
2.518883e+02
2.501988e+02
2.491936e+02
2.493830e+02
2.500198e+02
2.507373e+02
2.517090e+02
2.515915e+02
2.517793e+02
2.512079e+02
2.494439e+02
2.465174e+02
2.430842e+02
2.395156e+02
2.362857e+02
2.331849e+02
2.306661e+02
2.282391e+02
2.256101e+02
2.234500e+02
2.205397e+02
2.172032e+02
2.135733e+02
2.104136e+02
2.074755e+02
2.048474e+02
2.026818e+02
2.010316e+02
1.996705e+02
1.979694e+02
1.962112e+02
1.941913e+02
1.923127e+02
1.904341e+02
1.888334e+02
1.878766e+02
1.871572e+02
1.865909e+02
1.859251e+02
1.852401e+02
1.841076e+02
1.828784e+02
1.816996e+02
1.806301e+02
1.797336e+02
1.795448e+02
1.793828e+02
1.788660e+02
1.783640e+02
1.773627e+02
1.761150e+02
1.753144e+02
1.743201e+02
1.732566e+02
1.721808e+02
1.708669e+02
1.692994e+02
1.678572e+02
1.664781e+02
1.648712e+02
1.634498e+02
1.622886e+02
1.608623e+02
1.593558e+02
1.571972e+02
1.527884e+02
1.489108e+02
1.641578e+02
2.091012e+02
2.503537e+02
2.435907e+02
2.238075e+02
2.402997e+02
1.415243e+01
-5.069225e+01
-4.853232e+01
-4.942690e+01
-4.890617e+01
-4.775436e+01
-4.645122e+01
-4.517278e+01
-4.384210e+01
-4.265317e+01
-4.162519e+01
-4.042189e+01
-3.913632e+01
-3.785741e+01
-3.645077e+01
-3.484543e+01
-3.316642e+01
-3.152158e+01
-2.947560e+01
-2.739949e+01
-2.529233e+01
-2.312903e+01
-2.081777e+01
-1.815687e+01
-1.518819e+01
-1.217725e+01
-9.215015e+00
-6.183794e+00
-3.129529e+00
-2.096418e-01
2.867519e+00
5.989522e+00
9.289942e+00
1.247401e+01
1.598679e+01
2.022539e+01
2.427181e+01
2.892218e+01
3.401708e+01
3.920736e+01
4.480129e+01
5.017639e+01
5.540716e+01
6.081605e+01
6.621706e+01
7.130047e+01
7.652812e+01
8.177474e+01
8.670122e+01
9.096997e+01
9.519993e+01
9.935207e+01
1.032790e+02
1.077759e+02
1.124006e+02
1.178272e+02
1.238126e+02
1.300007e+02
1.358373e+02
1.410592e+02
1.462210e+02
1.513156e+02
1.559475e+02
1.601178e+02
1.637842e+02
1.666081e+02
1.692654e+02
1.725859e+02
1.759916e+02
1.812131e+02
1.872269e+02
1.941889e+02
2.010805e+02
2.073066e+02
2.138255e+02
2.203814e+02
2.262198e+02
2.309506e+02
2.342346e+02
2.371126e+02
2.389041e+02
2.400435e+02
2.409794e+02
2.408211e+02
2.405968e+02
2.410616e+02
2.401339e+02
2.390352e+02
2.385819e+02
2.382948e+02
2.394016e+02
2.406160e+02
2.413394e+02
2.439633e+02
2.468798e+02
2.500173e+02
2.521435e+02
2.533439e+02
2.559630e+02
2.589769e+02
2.617453e+02
2.634347e+02
2.643835e+02
2.651399e+02
2.646902e+02
2.642655e+02
2.644069e+02
2.650160e+02
2.653239e+02
2.649037e+02
2.652622e+02
2.657971e+02
2.655652e+02
2.648329e+02
2.632057e+02
2.595687e+02
2.556137e+02
2.505991e+02
2.446002e+02
2.384293e+02
2.321827e+02
2.271270e+02
2.213363e+02
2.157202e+02
2.104901e+02
2.052593e+02
2.009487e+02
1.977191e+02
1.943014e+02
1.913967e+02
1.886043e+02
1.855159e+02
1.829399e+02
1.810106e+02
1.793667e+02
1.774750e+02
1.756490e+02
1.738031e+02
1.718152e+02
1.701213e+02
1.679872e+02
1.652622e+02
1.623954e+02
1.597600e+02
1.577913e+02
1.563566e+02
1.549172e+02
1.540061e+02
1.536866e+02
1.534812e+02
1.535863e+02
1.534253e+02
1.530780e+02
1.526493e+02
1.520741e+02
1.510169e+02
1.506831e+02
1.511432e+02
1.514535e+02
1.519053e+02
1.528618e+02
1.535907e+02
1.539309e+02
1.527642e+02
1.511606e+02
1.494561e+02
1.481087e+02
1.467810e+02
1.456478e+02
1.446340e+02
1.435290e+02
1.419896e+02
1.381864e+02
1.347715e+02
1.419420e+02
1.799448e+02
2.269964e+02
2.395374e+02
2.201675e+02
2.270613e+02
3.018981e+01
-4.310729e+01
-4.135157e+01
-4.182285e+01
-4.186710e+01
-4.118547e+01
-4.018411e+01
-3.911844e+01
-3.808972e+01
-3.705916e+01
-3.594851e+01
-3.466556e+01
-3.328116e+01
-3.178713e+01
-3.014526e+01
-2.812892e+01
-2.623856e+01
-2.423638e+01
-2.198259e+01
-1.938660e+01
-1.606926e+01
-1.264767e+01
-9.184605e+00
-5.891639e+00
-2.300519e+00
1.405883e+00
5.225547e+00
9.122126e+00
1.279408e+01
1.689966e+01
2.101258e+01
2.586411e+01
3.128947e+01
3.612289e+01
4.107688e+01
4.643410e+01
5.211082e+01
5.756157e+01
6.318216e+01
6.868497e+01
7.422038e+01
7.996064e+01
8.582413e+01
9.186025e+01
9.768437e+01
1.035137e+02
1.094391e+02
1.157881e+02
1.220036e+02
1.275654e+02
1.332556e+02
1.390045e+02
1.445190e+02
1.498549e+02
1.555907e+02
1.610307e+02
1.664819e+02
1.721668e+02
1.781764e+02
1.847916e+02
1.912023e+02
1.970199e+02
2.029141e+02
2.080629e+02
2.137879e+02
2.187751e+02
2.237965e+02
2.292882e+02
2.340122e+02
2.391159e+02
2.455679e+02
2.533013e+02
2.623716e+02
2.712455e+02
2.800006e+02
2.867316e+02
2.913683e+02
2.952764e+02
2.972280e+02
2.988279e+02
3.001449e+02
3.011260e+02
3.022452e+02
3.032113e+02
3.042991e+02
3.046208e+02
3.030921e+02
3.014706e+02
2.998426e+02
2.972677e+02
2.943193e+02
2.916356e+02
2.882971e+02
2.868204e+02
2.878190e+02
2.897252e+02
2.916630e+02
2.940795e+02
2.966381e+02
2.990013e+02
3.005676e+02
3.013824e+02
3.021328e+02
3.019007e+02
3.025442e+02
3.033072e+02
3.035077e+02
3.031319e+02
3.025777e+02
3.017344e+02
3.000724e+02
2.979126e+02
2.962171e+02
2.936736e+02
2.903976e+02
2.859764e+02
2.810310e+02
2.755309e+02
2.682245e+02
2.605393e+02
2.541508e+02
2.479463e+02
2.400084e+02
2.312994e+02
2.230130e+02
2.164444e+02
2.106480e+02
2.051180e+02
2.002391e+02
1.952591e+02
1.900434e+02
1.860329e+02
1.829212e+02
1.799974e+02
1.775937e+02
1.754524e+02
1.728944e+02
1.701200e+02
1.676161e+02
1.653998e+02
1.630346e+02
1.609150e+02
1.589626e+02
1.570791e+02
1.552877e+02
1.538716e+02
1.526066e+02
1.515511e+02
1.509037e+02
1.493488e+02
1.487588e+02
1.484988e+02
1.474196e+02
1.462145e+02
1.452859e+02
1.442168e+02
1.423333e+02
1.407811e+02
1.395663e+02
1.394875e+02
1.401210e+02
1.406227e+02
1.404457e+02
1.401538e+02
1.393499e+02
1.383987e+02
1.374021e+02
1.360900e+02
1.347839e+02
1.339076e+02
1.328009e+02
1.311229e+02
1.271169e+02
1.249788e+02
1.312781e+02
1.699454e+02
2.272713e+02
2.412295e+02
2.130015e+02
2.246268e+02
5.510102e+01
-3.219406e+01
-3.180067e+01
-3.273068e+01
-3.278357e+01
-3.192314e+01
-3.098256e+01
-3.010066e+01
-2.914680e+01
-2.802050e+01
-2.694124e+01
-2.575438e+01
-2.438691e+01
-2.261899e+01
-2.058872e+01
-1.832257e+01
-1.588781e+01
-1.302497e+01
-9.937830e+00
-6.637885e+00
-3.133420e+00
6.436007e-01
4.450674e+00
8.409794e+00
1.275155e+01
1.741184e+01
2.250300e+01
2.764995e+01
3.361605e+01
3.947886e+01
4.527158e+01
5.075777e+01
5.659217e+01
6.321533e+01
6.968262e+01
7.625463e+01
8.254165e+01
8.830718e+01
9.379308e+01
9.926249e+01
1.048758e+02
1.110973e+02
1.173130e+02
1.232653e+02
1.299350e+02
1.364084e+02
1.434664e+02
1.510038e+02
1.583374e+02
1.651490e+02
1.705060e+02
1.755727e+02
1.808078e+02
1.865537e+02
1.927881e+02
1.992088e+02
2.056815e+02
2.124888e+02
2.197763e+02
2.283015e+02
2.364931e+02
2.447175e+02
2.531127e+02
2.611892e+02
2.683394e+02
2.739811e+02
2.797688e+02
2.870447e+02
2.943164e+02
3.013380e+02
3.080970e+02
3.152969e+02
3.217614e+02
3.276624e+02
3.355703e+02
3.426224e+02
3.478335e+02
3.511375e+02
3.535888e+02
3.545929e+02
3.555719e+02
3.568136e+02
3.585878e+02
3.603571e+02
3.622540e+02
3.642320e+02
3.645289e+02
3.633104e+02
3.610837e+02
3.577425e+02
3.542524e+02
3.502001e+02
3.459407e+02
3.423479e+02
3.402299e+02
3.396908e+02
3.402769e+02
3.420882e+02
3.439861e+02
3.449173e+02
3.451106e+02
3.452123e+02
3.454477e+02
3.451471e+02
3.445358e+02
3.429894e+02
3.423541e+02
3.412829e+02
3.395896e+02
3.374369e+02
3.353445e+02
3.333468e+02
3.313626e+02
3.292386e+02
3.260311e+02
3.210555e+02
3.143289e+02
3.068649e+02
2.990542e+02
2.894239e+02
2.785917e+02
2.678558e+02
2.572045e+02
2.475529e+02
2.395587e+02
2.323682e+02
2.258732e+02
2.197404e+02
2.143897e+02
2.096441e+02
2.052906e+02
2.010552e+02
1.970078e+02
1.930392e+02
1.894003e+02
1.857010e+02
1.821459e+02
1.784679e+02
1.746166e+02
1.708978e+02
1.674640e+02
1.642500e+02
1.611069e+02
1.580033e+02
1.550772e+02
1.526273e+02
1.502255e+02
1.487681e+02
1.476636e+02
1.468463e+02
1.465773e+02
1.464435e+02
1.460037e+02
1.453529e+02
1.444614e+02
1.435489e+02
1.417014e+02
1.396056e+02
1.381083e+02
1.369562e+02
1.371515e+02
1.374930e+02
1.376524e+02
1.375694e+02
1.368199e+02
1.362554e+02
1.353321e+02
1.344785e+02
1.338527e+02
1.334508e+02
1.325683e+02
1.312947e+02
1.274061e+02
1.216341e+02
1.260145e+02
1.689728e+02
2.332485e+02
2.423518e+02
2.087052e+02
2.245204e+02
9.243243e+01
-1.853407e+01
-1.976978e+01
-2.291248e+01
-2.326097e+01
-2.232413e+01
-2.120466e+01
-2.009582e+01
-1.881646e+01
-1.751435e+01
-1.602373e+01
-1.431119e+01
-1.246186e+01
-1.029645e+01
-7.401414e+00
-4.046857e+00
-5.012623e-01
3.299159e+00
7.150480e+00
1.151027e+01
1.594257e+01
2.060562e+01
2.545629e+01
3.025526e+01
3.523122e+01
4.091965e+01
4.684477e+01
5.323233e+01
5.997332e+01
6.643270e+01
7.316734e+01
8.011985e+01
8.733489e+01
9.420078e+01
1.010187e+02
1.084285e+02
1.154632e+02
1.217239e+02
1.278365e+02
1.340059e+02
1.406969e+02
1.478910e+02
1.552061e+02
1.623103e+02
1.695494e+02
1.767185e+02
1.838930e+02
1.905340e+02
1.975280e+02
2.039762e+02
2.112317e+02
2.180443e+02
2.238804e+02
2.296654e+02
2.360225e+02
2.441668e+02
2.527242e+02
2.617238e+02
2.709242e+02
2.799367e+02
2.886685e+02
2.973236e+02
3.051395e+02
3.120908e+02
3.192849e+02
3.267961e+02
3.350106e+02
3.421684e+02
3.482793e+02
3.545103e+02
3.603789e+02
3.658374e+02
3.733446e+02
3.823527e+02
3.902787e+02
3.970448e+02
4.025130e+02
4.060613e+02
4.086512e+02
4.100240e+02
4.111735e+02
4.130054e+02
4.161668e+02
4.204907e+02
4.244554e+02
4.277667e+02
4.294276e+02
4.301125e+02
4.287917e+02
4.265194e+02
4.232463e+02
4.187089e+02
4.138597e+02
4.090036e+02
4.049771e+02
4.024766e+02
4.017770e+02
4.014884e+02
4.005409e+02
3.989397e+02
3.966353e+02
3.943447e+02
3.922199e+02
3.894588e+02
3.862796e+02
3.842031e+02
3.813956e+02
3.789087e+02
3.768308e+02
3.743603e+02
3.713714e+02
3.682202e+02
3.649335e+02
3.618871e+02
3.576068e+02
3.517136e+02
3.449949e+02
3.374123e+02
3.285856e+02
3.177015e+02
3.049449e+02
2.924018e+02
2.806826e+02
2.698246e+02
2.581749e+02
2.486615e+02
2.405711e+02
2.332845e+02
2.274568e+02
2.236570e+02
2.199858e+02
2.161247e+02
2.122811e+02
2.077052e+02
2.027324e+02
1.981104e+02
1.933599e+02
1.885494e+02
1.837264e+02
1.790566e+02
1.751244e+02
1.714978e+02
1.676897e+02
1.636975e+02
1.597849e+02
1.559328e+02
1.524080e+02
1.498296e+02
1.474384e+02
1.451666e+02
1.431697e+02
1.417855e+02
1.412682e+02
1.407356e+02
1.402328e+02
1.402304e+02
1.404612e+02
1.397197e+02
1.391234e+02
1.386625e+02
1.381579e+02
1.383398e+02
1.381541e+02
1.375893e+02
1.369859e+02
1.360068e+02
1.353638e+02
1.352174e+02
1.352575e+02
1.352283e+02
1.354119e+02
1.345721e+02
1.308052e+02
1.221336e+02
1.244249e+02
1.705778e+02
2.378900e+02
2.459875e+02
2.045558e+02
2.246069e+02
1.517975e+02
-1.180334e+00
-6.252483e+00
-1.031379e+01
-1.041814e+01
-9.425949e+00
-8.199718e+00
-6.858382e+00
-5.298301e+00
-3.385781e+00
-1.173920e+00
1.674310e+00
4.767270e+00
8.151315e+00
1.199518e+01
1.611648e+01
2.026577e+01
2.486206e+01
2.973691e+01
3.466286e+01
3.994716e+01
4.594219e+01
5.256401e+01
5.947126e+01
6.662903e+01
7.404148e+01
8.146058e+01
8.811998e+01
9.534118e+01
1.025071e+02
1.100583e+02
1.172464e+02
1.244182e+02
1.317918e+02
1.393433e+02
1.468553e+02
1.537757e+02
1.608346e+02
1.684802e+02
1.761819e+02
1.839707e+02
1.921185e+02
2.002554e+02
2.084877e+02
2.164385e+02
2.237858e+02
2.306620e+02
2.370820e+02
2.432453e+02
2.498689e+02
2.571812e+02
2.646122e+02
2.717567e+02
2.787424e+02
2.864908e+02
2.954426e+02
3.049432e+02
3.141683e+02
3.229796e+02
3.317359e+02
3.399600e+02
3.473120e+02
3.546351e+02
3.608039e+02
3.658230e+02
3.722601e+02
3.803397e+02
3.908469e+02
4.012695e+02
4.104193e+02
4.181935e+02
4.246331e+02
4.316456e+02
4.384956e+02
4.449706e+02
4.505128e+02
4.547983e+02
4.578942e+02
4.601592e+02
4.624272e+02
4.653873e+02
4.705081e+02
4.760384e+02
4.813337e+02
4.859786e+02
4.906903e+02
4.942144e+02
4.955778e+02
4.954129e+02
4.931727e+02
4.887437e+02
4.830467e+02
4.776344e+02
4.728379e+02
4.683060e+02
4.635383e+02
4.598733e+02
4.565654e+02
4.536224e+02
4.519514e+02
4.505779e+02
4.494312e+02
4.466602e+02
4.421761e+02
4.375588e+02
4.334534e+02
4.287883e+02
4.238898e+02
4.195655e+02
4.159779e+02
4.125258e+02
4.079193e+02
4.019375e+02
3.946600e+02
3.871824e+02
3.780483e+02
3.698319e+02
3.612054e+02
3.514700e+02
3.406437e+02
3.278836e+02
3.145116e+02
3.006309e+02
2.878627e+02
2.769797e+02
2.659156e+02
2.560347e+02
2.489927e+02
2.421832e+02
2.361445e+02
2.308894e+02
2.261913e+02
2.217761e+02
2.170859e+02
2.125967e+02
2.083537e+02
2.035314e+02
1.981026e+02
1.924386e+02
1.872486e+02
1.822364e+02
1.772614e+02
1.722334e+02
1.676602e+02
1.635960e+02
1.595015e+02
1.556087e+02
1.522070e+02
1.493509e+02
1.472818e+02
1.454374e+02
1.434569e+02
1.417229e+02
1.399929e+02
1.384615e+02
1.375752e+02
1.372055e+02
1.371250e+02
1.390382e+02
1.411192e+02
1.417009e+02
1.416919e+02
1.417069e+02
1.411351e+02
1.408580e+02
1.403749e+02
1.399927e+02
1.392719e+02
1.388288e+02
1.391711e+02
1.392632e+02
1.385395e+02
1.353563e+02
1.239145e+02
1.243616e+02
1.683139e+02
2.359960e+02
2.511950e+02
2.019216e+02
2.238582e+02
2.655358e+02
2.188133e+01
1.330584e+01
7.745392e+00
7.272593e+00
9.028434e+00
1.118937e+01
1.393119e+01
1.689271e+01
2.001689e+01
2.343398e+01
2.727037e+01
3.119035e+01
3.564092e+01
4.057009e+01
4.549845e+01
5.038351e+01
5.550079e+01
6.094269e+01
6.765803e+01
7.530109e+01
8.325398e+01
9.110022e+01
9.907916e+01
1.072057e+02
1.152068e+02
1.233271e+02
1.314196e+02
1.390134e+02
1.465743e+02
1.538543e+02
1.610926e+02
1.684054e+02
1.759891e+02
1.838827e+02
1.922977e+02
2.007211e+02
2.096432e+02
2.201200e+02
2.303488e+02
2.394303e+02
2.477079e+02
2.558924e+02
2.631326e+02
2.700225e+02
2.768239e+02
2.833565e+02
2.900994e+02
2.974244e+02
3.049643e+02
3.123951e+02
3.193548e+02
3.262171e+02
3.326762e+02
3.395521e+02
3.470242e+02
3.552546e+02
3.642358e+02
3.730093e+02
3.814811e+02
3.883280e+02
3.954396e+02
4.026401e+02
4.094651e+02
4.165343e+02
4.247957e+02
4.340377e+02
4.441607e+02
4.543676e+02
4.648468e+02
4.737046e+02
4.813461e+02
4.876366e+02
4.922764e+02
4.954043e+02
4.983976e+02
5.021968e+02
5.067502e+02
5.116964e+02
5.162769e+02
5.203992e+02
5.246522e+02
5.290662e+02
5.351109e+02
5.406707e+02
5.454454e+02
5.487671e+02
5.502505e+02
5.487905e+02
5.453886e+02
5.418218e+02
5.378069e+02
5.332668e+02
5.287811e+02
5.230426e+02
5.174487e+02
5.110295e+02
5.048774e+02
4.991317e+02
4.952081e+02
4.935563e+02
4.914584e+02
4.888868e+02
4.849508e+02
4.802108e+02
4.753367e+02
4.707413e+02
4.653600e+02
4.589179e+02
4.517712e+02
4.445837e+02
4.375697e+02
4.300142e+02
4.213200e+02
4.108820e+02
3.992104e+02
3.882389e+02
3.778238e+02
3.674243e+02
3.564196e+02
3.440102e+02
3.308416e+02
3.188946e+02
3.075788e+02
2.960134e+02
2.850399e+02
2.762272e+02
2.679729e+02
2.596646e+02
2.528464e+02
2.460018e+02
2.395097e+02
2.328190e+02
2.267378e+02
2.213021e+02
2.157480e+02
2.095858e+02
2.040534e+02
1.989974e+02
1.942504e+02
1.895311e+02
1.850180e+02
1.806283e+02
1.757484e+02
1.706691e+02
1.655657e+02
1.608440e+02
1.564743e+02
1.526473e+02
1.496023e+02
1.466207e+02
1.442568e+02
1.429306e+02
1.417601e+02
1.406347e+02
1.401757e+02
1.400348e+02
1.405741e+02
1.415468e+02
1.421846e+02
1.430396e+02
1.445108e+02
1.457135e+02
1.458657e+02
1.463414e+02
1.465755e+02
1.472638e+02
1.473353e+02
1.465855e+02
1.453555e+02
1.444258e+02
1.435423e+02
1.398919e+02
1.293016e+02
1.248455e+02
1.683673e+02
2.327185e+02
2.549969e+02
2.002151e+02
2.213492e+02
4.289513e+02
6.079179e+01
4.014429e+01
4.048997e+01
4.390059e+01
4.699980e+01
5.004990e+01
5.314139e+01
5.651343e+01
6.026229e+01
6.425109e+01
6.851887e+01
7.303584e+01
7.783179e+01
8.289730e+01
8.859794e+01
9.499750e+01
1.020272e+02
1.102532e+02
1.185338e+02
1.273373e+02
1.363450e+02
1.453139e+02
1.539087e+02
1.622602e+02
1.704738e+02
1.784211e+02
1.859058e+02
1.931740e+02
2.006369e+02
2.082014e+02
2.156896e+02
2.231222e+02
2.311900e+02
2.403470e+02
2.494826e+02
2.574298e+02
2.654862e+02
2.742790e+02
2.844277e+02
2.944536e+02