/*--------------------------------*- C++ -*----------------------------------*\
| =========                 |                                                 |
| \\      /  F ield         | OpenFOAM: The Open Source CFD Toolbox           |
|  \\    /   O peration     | Version:  v2406                                 |
|   \\  /    A nd           | Website:  www.openfoam.com                      |
|    \\/     M anipulation  |                                                 |
\*---------------------------------------------------------------------------*/
FoamFile
{
    version     2.0;
    format      ascii;
    class       volScalarField;
    location    "predicted";
    object      k;
}
// * * * * * * * * * * * * * * * * * * * * * * * * * * * * * * * * * * * * * //

dimensions      [0 2 -2 0 0 0 0];

internalField   nonuniform List<scalar>
49181
(
1.034906e+00
1.337963e+00
1.180160e+00
1.319062e+00
1.374709e+00
1.416262e+00
1.451749e+00
1.482776e+00
1.502932e+00
1.531686e+00
1.527860e+00
1.529499e+00
1.523808e+00
1.489270e+00
1.441524e+00
1.388070e+00
1.527958e+00
1.277207e+00
1.298354e+00
5.063651e-01
5.661613e-01
6.593213e-01
7.275766e-01
7.960272e-01
8.583069e-01
9.294820e-01
1.010869e+00
1.088419e+00
1.147733e+00
1.184934e+00
1.151922e+00
1.036356e+00
8.905755e-01
8.040988e-01
8.740782e-01
1.156371e+00
1.085313e+00
5.316095e-01
5.147351e-01
4.712054e-01
4.822730e-01
5.055891e-01
5.346042e-01
5.701517e-01
6.295014e-01
7.029887e-01
7.723249e-01
8.155508e-01
7.914229e-01
6.439903e-01
5.344169e-01
4.894696e-01
4.993137e-01
5.830394e-01
1.164867e+00
5.029254e-01
4.426035e-01
3.970606e-01
3.898732e-01
4.035870e-01
4.216676e-01
4.397115e-01
4.620906e-01
4.894271e-01
5.037000e-01
5.446673e-01
5.351323e-01
4.608072e-01
4.035628e-01
3.768988e-01
3.828561e-01
4.118575e-01
1.171301e+00
4.733527e-01
4.213532e-01
3.726911e-01
3.615925e-01
3.642542e-01
3.685687e-01
3.761290e-01
3.856662e-01
3.949318e-01
4.070509e-01
4.182359e-01
4.231334e-01
3.819051e-01
3.571052e-01
3.467639e-01
3.509607e-01
3.507644e-01
1.167705e+00
4.647514e-01
4.219672e-01
3.783829e-01
3.609041e-01
3.556574e-01
3.533146e-01
3.518036e-01
3.508234e-01
3.490641e-01
3.467594e-01
3.524993e-01
3.635586e-01
3.516368e-01
3.489217e-01
3.487012e-01
3.501730e-01
3.322180e-01
1.159187e+00
4.614933e-01
4.282063e-01
3.809861e-01
3.639600e-01
3.577326e-01
3.523104e-01
3.449686e-01
3.357682e-01
3.266910e-01
3.221193e-01
3.247553e-01
3.389138e-01
3.401293e-01
3.507521e-01
3.514287e-01
3.526899e-01
3.294987e-01
1.139081e+00
4.517352e-01
4.346668e-01
3.892574e-01
3.693792e-01
3.581498e-01
3.477801e-01
3.388934e-01
3.301809e-01
3.210642e-01
3.138459e-01
3.144645e-01
3.280906e-01
3.353774e-01
3.494767e-01
3.551751e-01
3.563806e-01
3.282884e-01
1.097946e+00
4.472391e-01
4.366528e-01
3.913945e-01
3.692385e-01
3.615862e-01
3.513529e-01
3.415749e-01
3.330628e-01
3.252683e-01
3.176677e-01
3.163156e-01
3.290875e-01
3.369923e-01
3.530423e-01
3.566528e-01
3.589753e-01
3.339064e-01
1.044779e+00
4.455322e-01
4.334965e-01
3.898048e-01
3.688152e-01
3.625457e-01
3.569834e-01
3.480261e-01
3.390720e-01
3.316372e-01
3.255062e-01
3.233013e-01
3.354326e-01
3.432244e-01
3.582922e-01
3.586523e-01
3.628768e-01
3.438397e-01
9.872788e-01
4.462569e-01
4.262800e-01
3.857121e-01
3.668756e-01
3.624554e-01
3.595911e-01
3.569440e-01
3.495329e-01
3.420740e-01
3.356620e-01
3.339374e-01
3.463347e-01
3.533436e-01
3.582395e-01
3.564233e-01
3.601966e-01
3.501985e-01
9.352019e-01
4.406127e-01
4.229321e-01
3.854931e-01
3.680581e-01
3.637380e-01
3.608001e-01
3.573532e-01
3.536425e-01
3.481216e-01
3.432862e-01
3.430511e-01
3.545598e-01
3.549582e-01
3.590587e-01
3.575748e-01
3.610592e-01
3.492004e-01
8.919666e-01
4.347472e-01
4.206373e-01
3.862465e-01
3.710597e-01
3.664239e-01
3.629673e-01
3.593254e-01
3.555800e-01
3.521048e-01
3.487616e-01
3.484893e-01
3.594216e-01
3.567210e-01
3.611994e-01
3.584327e-01
3.617558e-01
3.504944e-01
8.606683e-01
4.299482e-01
4.189859e-01
3.848911e-01
3.735820e-01
3.680967e-01
3.642010e-01
3.604774e-01
3.572795e-01
3.545063e-01
3.518662e-01
3.531145e-01
3.627068e-01
3.588158e-01
3.622388e-01
3.600032e-01
3.630944e-01
3.501098e-01
8.363800e-01
4.255167e-01
4.161973e-01
3.814576e-01
3.736992e-01
3.700205e-01
3.657377e-01
3.614252e-01
3.577882e-01
3.549102e-01
3.531538e-01
3.554027e-01
3.653793e-01
3.595586e-01
3.636246e-01
3.597144e-01
3.638933e-01
3.506181e-01
8.123831e-01
4.217605e-01
4.116280e-01
3.772858e-01
3.697212e-01
3.701702e-01
3.673772e-01
3.631792e-01
3.593565e-01
3.567365e-01
3.550984e-01
3.578720e-01
3.675663e-01
3.610418e-01
3.642601e-01
3.547566e-01
3.602230e-01
3.528319e-01
7.776011e-01
4.174227e-01
4.072282e-01
3.749803e-01
3.657118e-01
3.669330e-01
3.687807e-01
3.670300e-01
3.631916e-01
3.600917e-01
3.586385e-01
3.613612e-01
3.709199e-01
3.654916e-01
3.616027e-01
3.487363e-01
3.544612e-01
3.545817e-01
7.455042e-01
4.135074e-01
4.011990e-01
3.703533e-01
3.613332e-01
3.636292e-01
3.667599e-01
3.692076e-01
3.687456e-01
3.670264e-01
3.659858e-01
3.684539e-01
3.783297e-01
3.695707e-01
3.571060e-01
3.439650e-01
3.503353e-01
3.528081e-01
7.398796e-01
4.028663e-01
3.925192e-01
3.604077e-01
3.535227e-01
3.564261e-01
3.603612e-01
3.639014e-01
3.676691e-01
3.702724e-01
3.715327e-01
3.751688e-01
3.834417e-01
3.665592e-01
3.523001e-01
3.398559e-01
3.455508e-01
3.488636e-01
8.170632e-01
3.964348e-01
3.756593e-01
3.466794e-01
3.413571e-01
3.454017e-01
3.497462e-01
3.532660e-01
3.570661e-01
3.604286e-01
3.631680e-01
3.674185e-01
3.756304e-01
3.568968e-01
3.432442e-01
3.307014e-01
3.352055e-01
3.383299e-01
9.572215e-01
4.382072e-01
3.789064e-01
3.458807e-01
3.425903e-01
3.454991e-01
3.494089e-01
3.530525e-01
3.559685e-01
3.563821e-01
3.558085e-01
3.596591e-01
3.699703e-01
3.556471e-01
3.414538e-01
3.317659e-01
3.347823e-01
3.523944e-01
1.250373e+00
5.975049e-01
4.395608e-01
3.919830e-01
3.866082e-01
3.874941e-01
3.854588e-01
3.817343e-01
3.780775e-01
3.754888e-01
3.741362e-01
3.772466e-01
3.873132e-01
3.782788e-01
3.790484e-01
3.738618e-01
3.867622e-01
3.899276e-01
1.400586e+00
5.903745e-01
4.447263e-01
3.847130e-01
3.807644e-01
3.776278e-01
3.735105e-01
3.695092e-01
3.661481e-01
3.635217e-01
3.619177e-01
3.651435e-01
3.751155e-01
3.652783e-01
3.680455e-01
3.661673e-01
3.722639e-01
3.864590e-01
1.433448e+00
5.774817e-01
4.363823e-01
3.754554e-01
3.726824e-01
3.691694e-01
3.650010e-01
3.606888e-01
3.572305e-01
3.544568e-01
3.528982e-01
3.563656e-01
3.669435e-01
3.562775e-01
3.593776e-01
3.573874e-01
3.628011e-01
3.733750e-01
1.421862e+00
5.655463e-01
4.303115e-01
3.715778e-01
3.695000e-01
3.680115e-01
3.641966e-01
3.596952e-01
3.562938e-01
3.534921e-01
3.522048e-01
3.558514e-01
3.662963e-01
3.550043e-01
3.582101e-01
3.549555e-01
3.612400e-01
3.695458e-01
1.420115e+00
5.531116e-01
4.272554e-01
3.702543e-01
3.678735e-01
3.693376e-01
3.661213e-01
3.615097e-01
3.581371e-01
3.554813e-01
3.541530e-01
3.580532e-01
3.680997e-01
3.564935e-01
3.579345e-01
3.526912e-01
3.625512e-01
3.686201e-01
1.437320e+00
5.652796e-01
4.331793e-01
3.810958e-01
3.744112e-01
3.761030e-01
3.758372e-01
3.723904e-01
3.677056e-01
3.641857e-01
3.620744e-01
3.659875e-01
3.750298e-01
3.637989e-01
3.590101e-01
3.541788e-01
3.658299e-01
3.768565e-01
1.484149e+00
5.846269e-01
4.622443e-01
4.118888e-01
4.040253e-01
4.025581e-01
4.013667e-01
3.991418e-01
3.952252e-01
3.894556e-01
3.853344e-01
3.840279e-01
3.965932e-01
3.774184e-01
3.714559e-01
3.580714e-01
3.790449e-01
3.940699e-01
1.502867e+00
5.975315e-01
4.999682e-01
4.358302e-01
4.223497e-01
4.240050e-01
4.266693e-01
4.286071e-01
4.268974e-01
4.397188e-01
4.602031e-01
4.807263e-01
4.737993e-01
4.417635e-01
4.145789e-01
4.082898e-01
4.282217e-01
4.843922e-01
1.069412e+00
1.190909e+00
9.831762e-01
9.555814e-01
9.818603e-01
1.023451e+00
1.064108e+00
1.113833e+00
1.187378e+00
1.327009e+00
1.430752e+00
1.474209e+00
1.476311e+00
1.456013e+00
1.440769e+00
1.452756e+00
1.462160e+00
1.506896e+00
-9.763521e-02
2.843563e-01
3.502755e-01
3.006188e-01
3.096608e-01
3.155114e-01
3.221222e-01
3.289379e-01
3.358268e-01
3.429907e-01
3.495690e-01
3.554226e-01
3.608634e-01
3.665477e-01
3.726186e-01
3.784473e-01
3.843659e-01
3.904146e-01
3.962312e-01
4.018247e-01
4.074011e-01
4.129412e-01
4.186078e-01
4.243205e-01
4.311312e-01
4.387442e-01
4.446011e-01
4.499285e-01
4.556906e-01
4.611306e-01
4.657717e-01
4.699029e-01
4.739817e-01
4.796333e-01
4.859173e-01
4.925937e-01
4.993694e-01
5.065866e-01
5.148818e-01
5.244363e-01
5.336752e-01
5.431144e-01
5.517305e-01
5.611343e-01
5.715458e-01
5.827404e-01
5.960887e-01
6.099044e-01
6.231299e-01
6.370092e-01
6.520473e-01
6.685017e-01
6.853197e-01
7.016227e-01
7.188423e-01
7.376085e-01
7.558762e-01
7.706344e-01
7.864595e-01
8.033255e-01
8.179626e-01
8.324195e-01
8.479939e-01
8.639317e-01
8.808688e-01
8.962482e-01
9.104899e-01
9.237614e-01
9.344225e-01
9.422809e-01
9.484530e-01
9.530795e-01
9.580748e-01
9.630186e-01
9.676314e-01
9.690992e-01
9.682685e-01
9.636275e-01
9.570691e-01
9.492434e-01
9.386789e-01
9.256210e-01
9.112375e-01
8.984006e-01
8.878758e-01
8.798823e-01
8.778379e-01
8.761135e-01
8.719420e-01
8.685406e-01
8.652286e-01
8.635895e-01
8.599630e-01
8.578373e-01
8.550259e-01
8.553859e-01
8.542046e-01
8.511707e-01
8.480844e-01
8.442056e-01
8.418028e-01
8.414220e-01
8.376624e-01
8.356705e-01
8.366936e-01
8.380807e-01
8.423097e-01
8.449054e-01
8.481632e-01
8.543295e-01
8.642656e-01
8.738391e-01
8.822226e-01
8.897741e-01
8.994604e-01
9.058945e-01
9.124481e-01
9.231207e-01
9.298063e-01
9.387012e-01
9.451015e-01
9.476132e-01
9.472461e-01
9.444789e-01
9.409893e-01
9.360062e-01
9.315793e-01
9.294066e-01
9.265167e-01
9.246403e-01
9.234921e-01
9.213907e-01
9.189271e-01
9.141781e-01
9.087921e-01
9.005667e-01
8.908060e-01
8.808859e-01
8.712383e-01
8.621090e-01
8.530005e-01
8.425087e-01
8.320403e-01
8.190753e-01
8.034654e-01
7.887145e-01
7.748661e-01
7.607045e-01
7.470667e-01
7.356837e-01
7.259062e-01
7.179363e-01
7.082251e-01
6.984553e-01
6.888741e-01
6.794037e-01
6.686662e-01
6.552511e-01
6.419024e-01
6.302776e-01
6.189084e-01
6.071938e-01
5.964087e-01
5.850544e-01
5.734331e-01
5.657463e-01
5.602827e-01
5.561076e-01
5.523663e-01
5.488603e-01
5.451669e-01
5.424770e-01
5.495971e-01
5.649985e-01
5.703084e-01
7.647879e-01
9.203476e-01
1.026746e+00
1.047103e+00
9.983677e-01
2.820005e-01
1.336511e-01
8.621617e-02
1.326352e-01
1.446453e-01
1.549078e-01
1.667589e-01
1.788252e-01
1.907625e-01
2.024195e-01
2.141833e-01
2.256956e-01
2.370691e-01
2.479645e-01
2.588393e-01
2.690852e-01
2.779491e-01
2.867252e-01
2.955185e-01
3.043165e-01
3.127249e-01
3.212245e-01
3.299203e-01
3.390015e-01
3.485970e-01
3.587029e-01
3.693307e-01
3.799672e-01
3.908775e-01
4.020463e-01
4.138321e-01
4.263642e-01
4.384974e-01
4.498509e-01
4.625641e-01
4.764078e-01
4.905129e-01
5.045031e-01
5.175966e-01
5.310738e-01
5.460232e-01
5.622038e-01
5.800902e-01
5.977900e-01
6.163046e-01
6.352436e-01
6.543773e-01
6.728996e-01
6.906555e-01
7.080240e-01
7.246224e-01
7.424318e-01
7.634388e-01
7.842926e-01
8.025567e-01
8.228852e-01
8.448396e-01
8.678306e-01
8.933073e-01
9.200834e-01
9.475166e-01
9.759349e-01
1.004453e+00
1.033566e+00
1.062126e+00
1.090600e+00
1.119517e+00
1.147952e+00
1.177140e+00
1.205124e+00
1.232004e+00
1.258979e+00
1.284299e+00
1.310472e+00
1.338914e+00
1.365267e+00
1.389858e+00
1.412105e+00
1.435121e+00
1.462419e+00
1.489623e+00
1.516268e+00
1.539253e+00
1.553805e+00
1.561925e+00
1.564462e+00
1.564034e+00
1.561924e+00
1.562736e+00
1.561852e+00
1.560258e+00
1.555925e+00
1.551406e+00
1.545327e+00
1.541949e+00
1.539261e+00
1.534633e+00
1.531361e+00
1.525965e+00
1.521355e+00
1.515864e+00
1.511256e+00
1.506754e+00
1.505669e+00
1.506569e+00
1.507668e+00
1.503540e+00
1.495079e+00
1.482781e+00
1.467706e+00
1.451650e+00
1.435050e+00
1.417712e+00
1.400754e+00
1.384432e+00
1.370209e+00
1.360526e+00
1.354518e+00
1.347241e+00
1.339566e+00
1.323815e+00
1.303234e+00
1.284003e+00
1.267771e+00
1.248397e+00
1.228557e+00
1.206688e+00
1.184643e+00
1.164636e+00
1.146405e+00
1.129381e+00
1.109740e+00
1.088669e+00
1.067638e+00
1.048655e+00
1.031358e+00
1.014587e+00
9.984732e-01
9.815291e-01
9.663746e-01
9.521163e-01
9.362987e-01
9.190287e-01
9.026505e-01
8.849737e-01
8.655220e-01
8.465164e-01
8.293631e-01
8.129844e-01
7.971880e-01
7.825579e-01
7.650379e-01
7.468160e-01
7.283443e-01
7.103011e-01
6.931210e-01
6.775737e-01
6.657147e-01
6.544057e-01
6.440120e-01
6.362191e-01
6.268028e-01
6.156669e-01
6.033148e-01
5.899509e-01
5.773333e-01
5.661806e-01
5.569901e-01
5.482675e-01
5.398486e-01
5.317263e-01
5.269722e-01
5.307849e-01
5.459665e-01
6.634935e-01
7.904750e-01
1.154775e+00
1.564906e+00
1.667408e+00
1.450947e+00
3.604082e-01
1.093977e-01
1.799611e-01
2.003340e-01
2.079329e-01
2.182177e-01
2.294410e-01
2.414540e-01
2.540876e-01
2.665806e-01
2.792503e-01
2.921802e-01
3.046859e-01
3.169633e-01
3.294722e-01
3.423107e-01
3.554844e-01
3.692653e-01
3.828129e-01
3.961388e-01
4.094257e-01
4.215761e-01
4.346517e-01
4.493431e-01
4.644155e-01
4.795297e-01
4.945028e-01
5.091540e-01
5.235460e-01
5.382948e-01
5.529029e-01
5.678903e-01
5.836718e-01
6.005849e-01
6.188983e-01
6.377592e-01
6.577310e-01
6.780286e-01
6.991484e-01
7.215426e-01
7.474649e-01
7.804576e-01
8.142188e-01
8.474686e-01
8.801755e-01
9.139141e-01
9.486370e-01
9.866383e-01
1.024058e+00
1.059921e+00
1.096067e+00
1.131267e+00
1.165314e+00
1.200632e+00
1.236996e+00
1.272801e+00
1.310594e+00
1.347984e+00
1.387195e+00
1.425099e+00
1.462015e+00
1.498349e+00
1.535957e+00
1.572717e+00
1.606186e+00
1.638627e+00
1.670360e+00
1.700908e+00
1.733147e+00
1.766721e+00
1.800212e+00
1.837274e+00
1.875134e+00
1.914956e+00
1.955386e+00
1.994136e+00
2.032323e+00
2.069360e+00
2.103956e+00
2.134945e+00
2.164655e+00
2.193355e+00
2.220741e+00
2.238751e+00
2.244792e+00
2.244707e+00
2.242369e+00
2.237548e+00
2.232624e+00
2.229010e+00
2.227474e+00
2.230220e+00
2.233249e+00
2.242498e+00
2.256667e+00
2.269800e+00
2.284381e+00
2.300729e+00
2.315631e+00
2.325421e+00
2.332572e+00
2.337470e+00
2.343952e+00
2.345166e+00
2.343840e+00
2.340294e+00
2.332376e+00
2.320444e+00
2.305718e+00
2.287376e+00
2.265147e+00
2.237227e+00
2.204555e+00
2.168903e+00
2.128054e+00
2.089035e+00
2.047043e+00
2.003996e+00
1.964525e+00
1.924406e+00
1.883391e+00
1.851139e+00
1.823436e+00
1.796553e+00
1.770237e+00
1.747680e+00
1.728153e+00
1.705895e+00
1.685770e+00
1.666600e+00
1.649419e+00
1.635144e+00
1.619888e+00
1.604157e+00
1.587331e+00
1.570145e+00
1.550695e+00
1.530172e+00
1.507649e+00
1.484798e+00
1.463401e+00
1.439730e+00
1.413075e+00
1.385667e+00
1.358996e+00
1.335157e+00
1.310570e+00
1.285874e+00
1.263187e+00
1.240053e+00
1.219552e+00
1.198515e+00
1.172878e+00
1.148946e+00
1.124934e+00
1.099293e+00
1.075244e+00
1.050108e+00
1.026859e+00
1.004980e+00
9.822057e-01
9.590166e-01
9.410888e-01
9.259884e-01
9.115538e-01
8.994394e-01
8.896138e-01
8.793151e-01
8.658415e-01
8.519535e-01
8.387112e-01
8.278153e-01
8.332372e-01
8.724193e-01
9.620622e-01
1.141711e+00
1.580935e+00
2.199713e+00
2.243417e+00
1.914590e+00
3.014740e-01
1.589024e-01
2.046796e-01
2.300194e-01
2.403548e-01
2.512828e-01
2.631871e-01
2.756565e-01
2.884234e-01
3.012345e-01
3.143858e-01
3.285523e-01
3.430838e-01
3.585472e-01
3.737508e-01
3.892040e-01
4.057491e-01
4.232031e-01
4.408101e-01
4.582992e-01
4.760057e-01
4.935188e-01
5.111846e-01
5.294832e-01
5.484990e-01
5.671418e-01
5.858341e-01
6.044216e-01
6.215157e-01
6.385845e-01
6.567250e-01
6.751009e-01
6.948881e-01
7.171104e-01
7.407620e-01
7.697002e-01
8.023117e-01
8.388971e-01
8.794956e-01
9.225214e-01
9.669561e-01
1.011016e+00
1.052979e+00
1.095376e+00
1.139958e+00
1.186520e+00
1.235208e+00
1.285311e+00
1.334052e+00
1.382605e+00
1.431209e+00
1.480521e+00
1.527870e+00
1.576680e+00
1.626283e+00
1.673794e+00
1.721758e+00
1.771066e+00
1.819868e+00
1.866280e+00
1.913466e+00
1.962540e+00
2.011270e+00
2.058364e+00
2.098282e+00
2.134309e+00
2.171297e+00
2.209954e+00
2.249549e+00
2.293996e+00
2.341662e+00
2.393588e+00
2.445412e+00
2.496235e+00
2.549942e+00
2.606170e+00
2.666747e+00
2.721572e+00
2.766765e+00
2.806893e+00
2.840477e+00
2.876234e+00
2.916620e+00
2.950109e+00
2.974827e+00
2.992247e+00
3.001909e+00
3.006065e+00
3.007963e+00
3.007525e+00
3.003717e+00
2.999292e+00
2.995631e+00
2.997960e+00
3.004478e+00
3.012506e+00
3.022650e+00
3.035612e+00
3.052052e+00
3.064269e+00
3.078717e+00
3.094121e+00
3.110743e+00
3.122473e+00
3.130497e+00
3.135848e+00
3.141640e+00
3.144384e+00
3.142046e+00
3.136659e+00
3.126934e+00
3.111006e+00
3.084313e+00
3.050000e+00
3.019954e+00
2.988983e+00
2.957799e+00
2.919324e+00
2.876722e+00
2.833209e+00
2.784844e+00
2.735295e+00
2.681048e+00
2.624182e+00
2.569941e+00
2.515056e+00
2.462227e+00
2.414893e+00
2.369363e+00
2.333525e+00
2.304694e+00
2.276752e+00
2.250816e+00
2.225513e+00
2.201817e+00
2.181063e+00
2.157518e+00
2.134137e+00
2.110092e+00
2.084681e+00
2.059821e+00
2.035931e+00
2.007685e+00
1.975271e+00
1.943867e+00
1.910233e+00
1.874619e+00
1.841806e+00
1.809981e+00
1.776696e+00
1.741943e+00
1.705776e+00
1.671149e+00
1.637057e+00
1.603532e+00
1.570570e+00
1.536162e+00
1.495206e+00
1.453970e+00
1.410794e+00
1.369304e+00
1.331756e+00
1.298865e+00
1.270176e+00
1.243981e+00
1.216443e+00
1.187830e+00
1.159946e+00
1.132763e+00
1.107162e+00
1.086225e+00
1.069490e+00
1.069868e+00
1.125176e+00
1.304775e+00
1.506285e+00
2.095721e+00
2.816851e+00
2.697823e+00
2.263280e+00
2.882928e-01
1.721107e-01
2.177581e-01
2.481523e-01
2.569244e-01
2.672312e-01
2.788767e-01
2.921846e-01
3.056275e-01
3.197602e-01
3.344830e-01
3.500397e-01
3.658500e-01
3.816604e-01
3.981440e-01
4.165202e-01
4.344622e-01
4.531560e-01
4.720755e-01
4.906937e-01
5.099500e-01
5.292096e-01
5.484391e-01
5.673687e-01
5.866300e-01
6.062016e-01
6.247493e-01
6.432379e-01
6.641819e-01
6.863880e-01
7.094047e-01
7.366975e-01
7.655438e-01
7.989687e-01
8.360582e-01
8.782501e-01
9.238982e-01
9.720883e-01
1.021289e+00
1.068910e+00
1.115587e+00
1.162463e+00
1.210658e+00
1.263309e+00
1.315677e+00
1.368749e+00
1.422813e+00
1.479724e+00
1.536791e+00
1.592178e+00
1.647787e+00
1.702473e+00
1.755739e+00
1.808051e+00
1.864687e+00
1.919242e+00
1.973541e+00
2.027308e+00
2.078917e+00
2.131742e+00
2.180145e+00
2.227505e+00
2.276502e+00
2.321720e+00
2.367360e+00
2.412683e+00
2.457188e+00
2.502918e+00
2.547951e+00
2.594517e+00
2.648054e+00
2.706545e+00
2.767888e+00
2.836005e+00
2.906563e+00
2.978847e+00
3.046669e+00
3.109346e+00
3.161449e+00
3.204681e+00
3.245784e+00
3.290183e+00
3.337872e+00
3.379830e+00
3.418943e+00
3.446382e+00
3.459821e+00
3.466016e+00
3.471102e+00
3.472988e+00
3.472293e+00
3.469847e+00
3.463149e+00
3.459761e+00
3.467027e+00
3.481053e+00
3.499866e+00
3.518945e+00
3.533467e+00
3.545509e+00
3.553811e+00
3.558367e+00
3.564942e+00
3.574127e+00
3.586068e+00
3.594573e+00
3.599093e+00
3.596566e+00
3.581563e+00
3.560943e+00
3.541854e+00
3.527680e+00
3.513080e+00
3.489792e+00
3.460850e+00
3.426565e+00
3.393419e+00
3.357868e+00
3.318058e+00
3.273313e+00
3.231300e+00
3.179974e+00
3.117556e+00
3.055342e+00
2.995837e+00
2.943720e+00
2.895549e+00
2.848238e+00
2.802822e+00
2.759368e+00
2.721716e+00
2.688948e+00
2.660084e+00
2.630885e+00
2.602025e+00
2.573330e+00
2.545500e+00
2.515727e+00
2.488411e+00
2.460606e+00
2.433400e+00
2.406038e+00
2.374296e+00
2.336582e+00
2.293694e+00
2.244937e+00
2.196568e+00
2.149085e+00
2.105340e+00
2.066773e+00
2.027614e+00
1.986504e+00
1.946305e+00
1.907834e+00
1.870939e+00
1.832806e+00
1.795141e+00
1.757284e+00
1.718986e+00
1.678864e+00
1.636413e+00
1.595721e+00
1.556858e+00
1.515118e+00
1.476737e+00
1.439718e+00
1.403553e+00
1.369442e+00
1.338705e+00
1.308556e+00
1.281248e+00
1.258380e+00
1.256887e+00
1.310697e+00
1.515383e+00
1.734105e+00
2.468448e+00
3.137391e+00
2.943538e+00
2.485100e+00
2.801806e-01
1.923270e-01
2.401685e-01
2.654883e-01
2.724815e-01
2.839242e-01
2.966177e-01
3.104782e-01
3.251719e-01
3.406896e-01
3.564642e-01
3.726142e-01
3.884680e-01
4.053997e-01
4.222351e-01
4.395943e-01
4.575566e-01
4.760467e-01
4.947875e-01
5.138336e-01
5.331825e-01
5.526715e-01
5.719427e-01
5.917449e-01
6.128891e-01
6.346563e-01
6.587494e-01
6.850346e-01
7.151783e-01
7.457947e-01
7.772649e-01
8.136402e-01
8.520842e-01
8.961265e-01
9.421174e-01
9.949409e-01
1.045447e+00
1.095103e+00
1.143820e+00
1.193620e+00
1.245103e+00
1.298012e+00
1.351382e+00
1.406465e+00
1.464958e+00
1.523450e+00
1.583174e+00
1.643500e+00
1.702093e+00
1.759120e+00
1.814749e+00
1.870365e+00
1.928382e+00
1.987422e+00
2.046299e+00
2.103124e+00
2.158372e+00
2.207553e+00
2.255510e+00
2.308435e+00
2.362623e+00
2.416025e+00
2.470073e+00
2.523745e+00
2.578087e+00
2.632279e+00
2.685590e+00
2.742633e+00
2.800776e+00
2.860537e+00
2.921381e+00
2.985110e+00
3.054815e+00
3.135851e+00
3.227635e+00
3.315793e+00
3.397988e+00
3.461751e+00
3.512551e+00
3.552464e+00
3.592897e+00
3.638600e+00
3.686891e+00
3.731599e+00
3.768124e+00
3.800439e+00
3.827328e+00
3.842696e+00
3.851735e+00
3.856784e+00
3.860214e+00
3.859246e+00
3.859505e+00
3.860793e+00
3.868422e+00
3.882527e+00
3.898716e+00
3.913194e+00
3.926380e+00
3.937321e+00
3.942646e+00
3.944503e+00
3.950773e+00
3.957100e+00
3.964446e+00
3.967988e+00
3.963298e+00
3.953576e+00
3.939195e+00
3.916290e+00
3.890835e+00
3.868647e+00
3.850132e+00
3.826919e+00
3.792065e+00
3.748752e+00
3.705990e+00
3.657223e+00
3.611519e+00
3.558747e+00
3.503738e+00
3.441725e+00
3.375918e+00
3.318334e+00
3.268138e+00
3.220345e+00
3.170605e+00
3.119472e+00
3.071996e+00
3.032133e+00
2.994491e+00
2.957818e+00
2.923289e+00
2.891669e+00
2.858388e+00
2.822597e+00
2.788577e+00
2.754298e+00
2.720019e+00
2.685889e+00
2.654899e+00
2.623972e+00
2.591485e+00
2.555921e+00
2.516244e+00
2.474664e+00
2.426761e+00
2.377425e+00
2.326515e+00
2.275586e+00
2.222911e+00
2.168111e+00
2.116523e+00
2.073315e+00
2.031745e+00
1.988304e+00
1.945774e+00
1.902463e+00
1.865464e+00
1.827054e+00
1.787983e+00
1.750363e+00
1.710431e+00
1.671768e+00
1.634766e+00
1.594351e+00
1.554044e+00
1.515922e+00
1.477668e+00
1.441586e+00
1.408002e+00
1.380125e+00
1.376376e+00
1.432368e+00
1.634632e+00
1.874177e+00
2.666133e+00
3.292262e+00
3.080197e+00
2.615457e+00
2.760093e-01
2.150952e-01
2.671635e-01
2.872489e-01
2.966654e-01
3.094762e-01
3.237725e-01
3.387187e-01
3.539886e-01
3.691627e-01
3.840294e-01
3.988848e-01
4.136343e-01
4.287072e-01
4.461727e-01
4.645186e-01
4.835225e-01
5.033977e-01
5.235661e-01
5.444423e-01
5.656352e-01
5.887716e-01
6.111582e-01
6.340475e-01
6.588921e-01
6.866956e-01
7.174017e-01
7.492896e-01
7.841066e-01
8.241236e-01
8.663078e-01
9.103782e-01
9.575393e-01
1.007316e+00
1.057860e+00
1.109255e+00
1.160904e+00
1.210047e+00
1.261325e+00
1.315696e+00
1.372877e+00
1.432228e+00
1.491656e+00
1.551261e+00
1.611623e+00
1.671250e+00
1.730867e+00
1.787308e+00
1.844054e+00
1.899611e+00
1.959668e+00
2.021449e+00
2.083290e+00
2.144275e+00
2.203516e+00
2.263004e+00
2.318825e+00
2.372731e+00
2.428182e+00
2.482305e+00
2.536934e+00
2.592091e+00
2.648136e+00
2.705184e+00
2.766824e+00
2.836765e+00
2.913389e+00
2.992555e+00
3.065171e+00
3.138478e+00
3.210043e+00
3.287448e+00
3.369646e+00
3.462524e+00
3.558111e+00
3.652232e+00
3.734933e+00
3.804849e+00
3.859954e+00
3.903900e+00
3.946995e+00
3.992385e+00
4.040248e+00
4.086567e+00
4.127414e+00
4.164382e+00
4.193781e+00
4.219744e+00
4.240402e+00
4.256074e+00
4.263358e+00
4.265659e+00
4.271216e+00
4.280287e+00
4.292790e+00
4.305788e+00
4.319606e+00
4.333640e+00
4.344059e+00
4.347281e+00
4.346186e+00
4.342532e+00
4.333579e+00
4.320240e+00
4.307915e+00
4.298814e+00
4.285059e+00
4.271353e+00
4.254709e+00
4.233069e+00
4.207184e+00
4.182207e+00
4.154529e+00
4.123351e+00
4.081780e+00
4.035893e+00
3.983446e+00
3.924323e+00
3.871692e+00
3.818770e+00
3.757718e+00
3.691263e+00
3.624950e+00
3.560787e+00
3.498225e+00
3.442775e+00
3.388912e+00
3.334390e+00
3.284059e+00
3.244728e+00
3.209061e+00
3.177293e+00
3.144372e+00
3.106912e+00
3.072246e+00
3.039512e+00
3.004257e+00
2.967822e+00
2.929250e+00
2.887016e+00
2.847869e+00
2.811348e+00
2.773175e+00
2.735137e+00
2.694273e+00
2.649978e+00
2.603660e+00
2.558851e+00
2.511751e+00
2.463190e+00
2.411604e+00
2.357660e+00
2.305011e+00
2.255016e+00
2.202943e+00
2.145617e+00
2.093713e+00
2.046682e+00
2.001323e+00
1.956979e+00
1.916388e+00
1.871942e+00
1.831384e+00
1.792424e+00
1.753654e+00
1.716888e+00
1.679992e+00
1.639982e+00
1.599660e+00
1.557258e+00
1.514418e+00
1.481554e+00
1.474458e+00
1.534686e+00
1.734933e+00
2.030560e+00
2.835096e+00
3.394574e+00
3.168094e+00
2.713072e+00
2.628083e-01
2.303014e-01
2.967814e-01
3.159349e-01
3.247043e-01
3.380314e-01
3.522753e-01
3.666174e-01
3.814455e-01
3.961539e-01
4.112614e-01
4.279456e-01
4.455766e-01
4.642558e-01
4.832602e-01
5.021549e-01
5.214252e-01
5.416832e-01
5.639519e-01
5.880333e-01
6.130241e-01
6.388179e-01
6.682528e-01
6.986520e-01
7.295755e-01
7.647177e-01
8.000383e-01
8.401014e-01
8.829516e-01
9.268170e-01
9.731259e-01
1.021258e+00
1.071612e+00
1.123665e+00
1.175168e+00
1.225851e+00
1.275212e+00
1.328543e+00
1.386458e+00
1.446490e+00
1.507702e+00
1.567624e+00
1.626365e+00
1.684021e+00
1.742370e+00
1.798311e+00
1.853881e+00
1.910288e+00
1.968064e+00
2.032358e+00
2.100988e+00
2.166780e+00
2.230872e+00
2.293083e+00
2.353787e+00
2.412357e+00
2.470200e+00
2.529594e+00
2.587476e+00
2.644376e+00
2.701371e+00
2.759795e+00
2.823308e+00
2.896174e+00
2.972416e+00
3.055784e+00
3.145246e+00
3.243251e+00
3.337518e+00
3.428137e+00
3.514789e+00
3.601919e+00
3.688225e+00
3.777130e+00
3.870368e+00
3.958981e+00
4.038289e+00
4.102388e+00
4.154805e+00
4.199388e+00
4.244423e+00
4.298225e+00
4.354050e+00
4.408691e+00
4.457267e+00
4.498805e+00
4.534543e+00
4.568726e+00
4.600790e+00
4.619417e+00
4.628051e+00
4.629315e+00
4.636981e+00
4.651373e+00
4.660610e+00
4.666940e+00
4.673444e+00
4.681129e+00
4.684045e+00
4.684311e+00
4.681675e+00
4.675208e+00
4.662001e+00
4.647541e+00
4.629684e+00
4.611447e+00
4.590797e+00
4.567490e+00
4.541489e+00
4.512073e+00
4.484594e+00
4.456089e+00
4.420657e+00
4.374593e+00
4.317563e+00
4.257140e+00
4.200618e+00
4.140945e+00
4.083192e+00
4.022944e+00
3.960249e+00
3.896545e+00
3.836449e+00
3.772323e+00
3.715063e+00
3.654632e+00
3.593802e+00
3.540814e+00
3.488755e+00
3.442694e+00
3.401640e+00
3.363034e+00
3.326879e+00
3.287482e+00
3.246614e+00
3.205106e+00
3.164439e+00
3.127494e+00
3.093346e+00
3.057957e+00
3.018798e+00
2.978165e+00
2.936768e+00
2.896259e+00
2.853522e+00
2.809646e+00
2.763927e+00
2.717636e+00
2.668412e+00
2.623283e+00
2.577736e+00
2.530339e+00
2.482440e+00
2.431316e+00
2.377461e+00
2.321168e+00
2.260445e+00
2.194763e+00
2.133643e+00
2.081367e+00
2.034593e+00
1.990647e+00
1.945532e+00
1.902535e+00
1.859595e+00
1.816733e+00
1.780118e+00
1.741686e+00
1.702970e+00
1.657435e+00
1.613438e+00
1.576301e+00
1.566191e+00
1.624135e+00
1.820796e+00
2.221179e+00
2.996083e+00
3.492868e+00
3.233716e+00
2.790232e+00
2.560725e-01
2.381651e-01
3.239761e-01
3.399489e-01
3.492894e-01
3.644295e-01
3.793800e-01
3.952605e-01
4.114837e-01
4.277507e-01
4.447144e-01
4.624747e-01
4.812527e-01
5.010095e-01
5.215961e-01
5.435019e-01
5.657998e-01
5.898751e-01
6.146690e-01
6.424636e-01
6.740017e-01
7.083439e-01
7.438911e-01
7.799323e-01
8.159511e-01
8.586547e-01
9.035699e-01
9.484622e-01
9.932827e-01
1.040319e+00
1.088928e+00
1.138587e+00
1.188732e+00
1.239154e+00
1.290872e+00
1.344685e+00
1.399613e+00
1.456201e+00
1.514128e+00
1.572326e+00
1.630137e+00
1.688533e+00
1.747747e+00
1.804692e+00
1.862620e+00
1.920382e+00
1.977444e+00
2.037785e+00
2.104082e+00
2.173480e+00
2.242029e+00
2.308605e+00
2.372059e+00
2.432539e+00
2.493068e+00
2.552692e+00
2.612364e+00
2.673314e+00
2.736858e+00
2.799903e+00
2.869113e+00
2.943277e+00
3.022591e+00
3.102784e+00
3.184534e+00
3.271968e+00
3.365976e+00
3.462947e+00
3.565932e+00
3.671323e+00
3.771169e+00
3.861476e+00
3.950964e+00
4.039147e+00
4.121348e+00
4.198105e+00
4.272443e+00
4.337246e+00
4.397554e+00
4.452172e+00
4.503863e+00
4.557173e+00
4.613368e+00
4.669315e+00
4.720299e+00
4.764833e+00
4.806286e+00
4.842093e+00
4.873179e+00
4.893459e+00
4.907480e+00
4.916135e+00
4.921996e+00
4.932353e+00
4.934022e+00
4.935082e+00
4.931491e+00
4.930455e+00
4.927382e+00
4.925581e+00
4.924878e+00
4.918750e+00
4.908060e+00
4.896810e+00
4.884382e+00
4.869001e+00
4.849667e+00
4.825080e+00
4.786990e+00
4.739566e+00
4.690209e+00
4.651590e+00
4.611977e+00
4.558653e+00
4.494090e+00
4.423589e+00
4.365463e+00
4.310686e+00
4.249723e+00
4.187008e+00
4.125805e+00
4.067233e+00
4.009054e+00
3.949543e+00
3.892745e+00
3.836547e+00
3.780640e+00
3.725158e+00
3.670970e+00
3.623182e+00
3.576038e+00
3.534718e+00
3.493675e+00
3.453193e+00
3.411703e+00
3.367960e+00
3.319210e+00
3.275163e+00
3.232575e+00
3.193028e+00
3.154327e+00
3.112237e+00
3.070808e+00
3.030743e+00
2.991669e+00
2.949424e+00
2.906040e+00
2.863051e+00
2.817016e+00
2.772270e+00
2.723889e+00
2.672762e+00
2.626206e+00
2.577518e+00
2.525543e+00
2.473639e+00
2.416415e+00
2.356037e+00
2.290289e+00
2.221876e+00
2.157420e+00
2.105189e+00
2.055462e+00
2.008847e+00
1.966413e+00
1.919282e+00
1.873582e+00
1.833507e+00
1.792970e+00
1.750198e+00
1.704959e+00
1.663230e+00
1.648595e+00
1.703331e+00
1.906985e+00
2.379773e+00
3.127529e+00
3.573062e+00
3.268878e+00
2.846598e+00
3.092897e-01
2.412543e-01
3.464510e-01
3.654185e-01
3.785287e-01
3.936714e-01
4.092864e-01
4.258044e-01
4.433352e-01
4.611323e-01
4.787648e-01
4.980511e-01
5.192183e-01
5.412677e-01
5.637491e-01
5.887194e-01
6.166776e-01
6.482558e-01
6.828378e-01
7.182727e-01
7.550025e-01
7.930439e-01
8.319501e-01
8.767271e-01
9.226798e-01
9.706801e-01
1.018923e+00
1.065243e+00
1.112071e+00
1.159670e+00
1.207760e+00
1.255513e+00
1.303257e+00
1.354545e+00
1.407850e+00
1.462861e+00
1.517319e+00
1.573655e+00
1.631395e+00
1.688918e+00
1.745411e+00
1.802324e+00
1.861826e+00
1.920427e+00
1.980736e+00
2.041068e+00
2.102730e+00
2.166228e+00
2.231544e+00
2.298547e+00
2.364867e+00
2.428271e+00
2.492369e+00
2.556409e+00
2.621450e+00
2.684476e+00
2.746149e+00
2.813346e+00
2.887747e+00
2.966903e+00
3.049643e+00
3.131869e+00
3.215039e+00
3.296031e+00
3.376350e+00
3.461702e+00
3.553240e+00
3.650298e+00
3.752459e+00
3.853455e+00
3.947781e+00
4.041608e+00
4.130049e+00
4.216844e+00
4.301841e+00
4.379488e+00
4.447066e+00
4.507913e+00
4.563469e+00
4.616496e+00
4.670961e+00