/*--------------------------------*- C++ -*----------------------------------*\
| =========                 |                                                 |
| \\      /  F ield         | OpenFOAM: The Open Source CFD Toolbox           |
|  \\    /   O peration     | Version:  v2406                                 |
|   \\  /    A nd           | Website:  www.openfoam.com                      |
|    \\/     M anipulation  |                                                 |
\*---------------------------------------------------------------------------*/
FoamFile
{
    version     2.0;
    format      ascii;
    class       volScalarField;
    location    "predicted";
    object      nut;
}
// * * * * * * * * * * * * * * * * * * * * * * * * * * * * * * * * * * * * * //

dimensions      [0 2 -1 0 0 0 0];

internalField   nonuniform List<scalar>
49181
(
-5.517193e-04
2.590750e-04
2.573877e-04
9.111018e-05
2.279556e-05
3.462212e-06
-9.141088e-06
-1.699661e-05
-1.947743e-05
2.887040e-07
-4.083650e-06
-5.520354e-06
-7.216517e-07
2.515467e-06
1.414451e-05
1.902029e-05
7.123732e-05
-6.034962e-05
2.600283e-04
4.065307e-04
4.815912e-04
3.606303e-04
3.004467e-04
2.834516e-04
2.747620e-04
2.656772e-04
2.601534e-04
2.571363e-04
2.587465e-04
2.603850e-04
2.685566e-04
2.569671e-04
2.531014e-04
2.570366e-04
3.083277e-04
3.423641e-04
2.970669e-04
5.548728e-04
6.762965e-04
5.945091e-04
5.286488e-04
4.860320e-04
4.540528e-04
4.209644e-04
3.956812e-04
3.821799e-04
3.696261e-04
3.688082e-04
3.823844e-04
3.933544e-04
4.484303e-04
4.901543e-04
4.772691e-04
4.136396e-04
1.504828e-04
4.894318e-04
6.789718e-04
6.182872e-04
5.587644e-04
5.244581e-04
4.932413e-04
4.612257e-04
4.309245e-04
4.014922e-04
3.728678e-04
3.806252e-04
3.973232e-04
4.349306e-04
5.059923e-04
5.447962e-04
5.383811e-04
4.595374e-04
1.178200e-04
5.057069e-04
7.075339e-04
6.593491e-04
6.149503e-04
5.849322e-04
5.575440e-04
5.335596e-04
5.116696e-04
4.932508e-04
4.756366e-04
4.697028e-04
4.889396e-04
5.189038e-04
5.738899e-04
6.086471e-04
6.045078e-04
5.349479e-04
1.413192e-04
5.664251e-04
7.491997e-04
7.130943e-04
6.810400e-04
6.606652e-04
6.397300e-04
6.183359e-04
5.984098e-04
5.791594e-04
5.627252e-04
5.560086e-04
5.734732e-04
6.051086e-04
6.528290e-04
6.765178e-04
6.740558e-04
6.172432e-04
1.743292e-04
6.352467e-04
7.870085e-04
7.540897e-04
7.287867e-04
7.131510e-04
6.986198e-04
6.838393e-04
6.689854e-04
6.532749e-04
6.398180e-04
6.337669e-04
6.485610e-04
6.739515e-04
7.069102e-04
7.228499e-04
7.208759e-04
6.781514e-04
1.991295e-04
6.937855e-04
8.158092e-04
7.864576e-04
7.660061e-04
7.516180e-04
7.381818e-04
7.252666e-04
7.119652e-04
6.991122e-04
6.879598e-04
6.829933e-04
6.948816e-04
7.159191e-04
7.445670e-04
7.580365e-04
7.569305e-04
7.201239e-04
2.188517e-04
7.401627e-04
8.322109e-04
8.070102e-04
7.872107e-04
7.777664e-04
7.657302e-04
7.537858e-04
7.428519e-04
7.326828e-04
7.227441e-04
7.178811e-04
7.284465e-04
7.456309e-04
7.705384e-04
7.805381e-04
7.806320e-04
7.491530e-04
2.402299e-04
7.700926e-04
8.381900e-04
8.187733e-04
8.031288e-04
7.958618e-04
7.879961e-04
7.766154e-04
7.655847e-04
7.557385e-04
7.470840e-04
7.413543e-04
7.516819e-04
7.686188e-04
7.924171e-04
7.978223e-04
8.004794e-04
7.754499e-04
2.551760e-04
7.933076e-04
8.379829e-04
8.226113e-04
8.100537e-04
8.056978e-04
8.005726e-04
7.952874e-04
7.858997e-04
7.763549e-04
7.674259e-04
7.623104e-04
7.727025e-04
7.890032e-04
8.023705e-04
8.041425e-04
8.069687e-04
7.929290e-04
2.707405e-04
8.027382e-04
8.401388e-04
8.265018e-04
8.149866e-04
8.108646e-04
8.071585e-04
8.022466e-04
7.962881e-04
7.884922e-04
7.806705e-04
7.770190e-04
7.875034e-04
7.978115e-04
8.077536e-04
8.090382e-04
8.119689e-04
7.996040e-04
2.869273e-04
8.115451e-04
8.427867e-04
8.295195e-04
8.202339e-04
8.157839e-04
8.117755e-04
8.075005e-04
8.023738e-04
7.973523e-04
7.910035e-04
7.875584e-04
7.975211e-04
8.036940e-04
8.124764e-04
8.129083e-04
8.155944e-04
8.041925e-04
3.065604e-04
8.184172e-04
8.463614e-04
8.315167e-04
8.244378e-04
8.199017e-04
8.155676e-04
8.114032e-04
8.067783e-04
8.027536e-04
7.981413e-04
7.964991e-04
8.047834e-04
8.084917e-04
8.162046e-04
8.165868e-04
8.190964e-04
8.068263e-04
3.268548e-04
8.238477e-04
8.495905e-04
8.323460e-04
8.267970e-04
8.236106e-04
8.199084e-04
8.152255e-04
8.102406e-04
8.056204e-04
8.024768e-04
8.018018e-04
8.100196e-04
8.122027e-04
8.197814e-04
8.190945e-04
8.222853e-04
8.103225e-04
3.471182e-04
8.281518e-04
8.515932e-04
8.327356e-04
8.271828e-04
8.262065e-04
8.235760e-04
8.197203e-04
8.150505e-04
8.102242e-04
8.063563e-04
8.063245e-04
8.139621e-04
8.169400e-04
8.230847e-04
8.198493e-04
8.240625e-04
8.144746e-04
3.550080e-04
8.310031e-04
8.532468e-04
8.357016e-04
8.283002e-04
8.286363e-04
8.282480e-04
8.250493e-04
8.210683e-04
8.167761e-04
8.129892e-04
8.126190e-04
8.204857e-04
8.228552e-04
8.263596e-04
8.201631e-04
8.246459e-04
8.204613e-04
3.638710e-04
8.339545e-04
8.549258e-04
8.370084e-04
8.293952e-04
8.303244e-04
8.322736e-04
8.323322e-04
8.298385e-04
8.265716e-04
8.231304e-04
8.227609e-04
8.306890e-04
8.313823e-04
8.278877e-04
8.207850e-04
8.258298e-04
8.257026e-04
3.714084e-04
8.298597e-04
8.545132e-04
8.355608e-04
8.284740e-04
8.292811e-04
8.316216e-04
8.338170e-04
8.351605e-04
8.350500e-04
8.340473e-04
8.344056e-04
8.413988e-04
8.354658e-04
8.285728e-04
8.228760e-04
8.276300e-04
8.272474e-04
3.718142e-04
8.228183e-04
8.480843e-04
8.306992e-04
8.236274e-04
8.246945e-04
8.268595e-04
8.289384e-04
8.305051e-04
8.308900e-04
8.308856e-04
8.321823e-04
8.388295e-04
8.320065e-04
8.256314e-04
8.201325e-04
8.235586e-04
8.230029e-04
4.012482e-04
8.284930e-04
8.420243e-04
8.253543e-04
8.201186e-04
8.209932e-04
8.230294e-04
8.239422e-04
8.234077e-04
8.214160e-04
8.190150e-04
8.196094e-04
8.285332e-04
8.257676e-04
8.209935e-04
8.156875e-04
8.171827e-04
8.230660e-04
5.536618e-04
9.029685e-04
8.698310e-04
8.436725e-04
8.391398e-04
8.382754e-04
8.359409e-04
8.327794e-04
8.285938e-04
8.242029e-04
8.207659e-04
8.212986e-04
8.297719e-04
8.307786e-04
8.354664e-04
8.328447e-04
8.366303e-04
8.357015e-04
5.116708e-04
8.236852e-04
8.684608e-04
8.357589e-04
8.311267e-04
8.280183e-04
8.240485e-04
8.194331e-04
8.145025e-04
8.102878e-04
8.070774e-04
8.073231e-04
8.166023e-04
8.169833e-04
8.232720e-04
8.213698e-04
8.217237e-04
8.231868e-04
4.531160e-04
7.818398e-04
8.632549e-04
8.300602e-04
8.259854e-04
8.224940e-04
8.184472e-04
8.134639e-04
8.083394e-04
8.041271e-04
8.008205e-04
8.011672e-04
8.108876e-04
8.109799e-04
8.176660e-04
8.156796e-04
8.146312e-04
8.143989e-04
4.267270e-04
7.843822e-04
8.601966e-04
8.293557e-04
8.255366e-04
8.232628e-04
8.198348e-04
8.149548e-04
8.097972e-04
8.051223e-04
8.021146e-04
8.030116e-04
8.117911e-04
8.122169e-04
8.184588e-04
8.156552e-04
8.155903e-04
8.151030e-04
4.269689e-04
7.934025e-04
8.588658e-04
8.306729e-04
8.265319e-04
8.257147e-04
8.225505e-04
8.183325e-04
8.133782e-04
8.085217e-04
8.049506e-04
8.060699e-04
8.147253e-04
8.151642e-04
8.203222e-04
8.165966e-04
8.184501e-04
8.169999e-04
4.630588e-04
8.289047e-04
8.626955e-04
8.392930e-04
8.329494e-04
8.316789e-04
8.296118e-04
8.255168e-04
8.211010e-04
8.157441e-04
8.114197e-04
8.120479e-04
8.205695e-04
8.197492e-04
8.228058e-04
8.194771e-04
8.225033e-04
8.235969e-04
6.625828e-04
8.548659e-04
8.784934e-04
8.529807e-04
8.470619e-04
8.431180e-04
8.404733e-04
8.374631e-04
8.320845e-04
8.247033e-04
8.161329e-04
8.120794e-04
8.233839e-04
8.203330e-04
8.202460e-04
8.115577e-04
8.197328e-04
8.220612e-04
5.319898e-04
7.914178e-04
8.748816e-04
8.347622e-04
8.140684e-04
8.070453e-04
8.008223e-04
7.914867e-04
7.729274e-04
7.412799e-04
7.102897e-04
6.869807e-04
6.959189e-04
7.118892e-04
7.269505e-04
7.233824e-04
7.168872e-04
6.727971e-04
-3.786593e-04
4.594794e-04
5.655885e-04
3.642303e-04
2.948817e-04
2.715881e-04
2.552105e-04
2.336658e-04
2.271843e-04
2.636976e-04
2.526532e-04
2.330786e-04
2.264546e-04
2.459502e-04
2.674905e-04
2.894280e-04
2.604831e-04
2.560611e-04
-3.458731e-04
3.763957e-04
5.681776e-04
5.493274e-04
5.559613e-04
5.625844e-04
5.691039e-04
5.753996e-04
5.817043e-04
5.879587e-04
5.940070e-04
5.996069e-04
6.047946e-04
6.102657e-04
6.162894e-04
6.229353e-04
6.299800e-04
6.371111e-04
6.439255e-04
6.504574e-04
6.570941e-04
6.636637e-04
6.699204e-04
6.763259e-04
6.839427e-04
6.922035e-04
6.980314e-04
7.031221e-04
7.083539e-04
7.128710e-04
7.164759e-04
7.192003e-04
7.208179e-04
7.226908e-04
7.244707e-04
7.268585e-04
7.296952e-04
7.324934e-04
7.360115e-04
7.403613e-04
7.450552e-04
7.494828e-04
7.529466e-04
7.565945e-04
7.613560e-04
7.674870e-04
7.753461e-04
7.834988e-04
7.918528e-04
8.002320e-04
8.077420e-04
8.144292e-04
8.214964e-04
8.277678e-04
8.340880e-04
8.412659e-04
8.481891e-04
8.517135e-04
8.544422e-04
8.577393e-04
8.603696e-04
8.625712e-04
8.643933e-04
8.664046e-04
8.671065e-04
8.650873e-04
8.610781e-04
8.541418e-04
8.431705e-04
8.314313e-04
8.181426e-04
8.013624e-04
7.835314e-04
7.654408e-04
7.467233e-04
7.247398e-04
6.999115e-04
6.745688e-04
6.480062e-04
6.219062e-04
5.968565e-04
5.708054e-04
5.487463e-04
5.290272e-04
5.047714e-04
4.813112e-04
4.650512e-04
4.512456e-04
4.376912e-04
4.243677e-04
4.129888e-04
4.024604e-04
3.933253e-04
3.873590e-04
3.884309e-04
3.964663e-04
4.074733e-04
4.191880e-04
4.308801e-04
4.419715e-04
4.526207e-04
4.610512e-04
4.663916e-04
4.718347e-04
4.842549e-04
4.988015e-04
5.133719e-04
5.284385e-04
5.440395e-04
5.598577e-04
5.758440e-04
5.946534e-04
6.135536e-04
6.317631e-04
6.531226e-04
6.725037e-04
6.912416e-04
7.147249e-04
7.361794e-04
7.557332e-04
7.752989e-04
7.911828e-04
8.041640e-04
8.175483e-04
8.319580e-04
8.453772e-04
8.586396e-04
8.687124e-04
8.792410e-04
8.905893e-04
9.029574e-04
9.153133e-04
9.266273e-04
9.347900e-04
9.425331e-04
9.451731e-04
9.437382e-04
9.414906e-04
9.386404e-04
9.342449e-04
9.290093e-04
9.239209e-04
9.200594e-04
9.150004e-04
9.077002e-04
8.996390e-04
8.929063e-04
8.891778e-04
8.864998e-04
8.866731e-04
8.892724e-04
8.935695e-04
8.963168e-04
8.974638e-04
8.983126e-04
9.003830e-04
9.033917e-04
9.048734e-04
9.071391e-04
9.108989e-04
9.152012e-04
9.203681e-04
9.266022e-04
9.320854e-04
9.371018e-04
9.423835e-04
9.474158e-04
9.522671e-04
9.556577e-04
9.591305e-04
9.633575e-04
9.690233e-04
9.859877e-04
1.026927e-03
9.849773e-04
9.334037e-04
9.592517e-04
9.955366e-04
1.039689e-03
1.020060e-03
3.706355e-04
3.476016e-04
3.867430e-04
4.142677e-04
4.228374e-04
4.315269e-04
4.411248e-04
4.510787e-04
4.607819e-04
4.701950e-04
4.795032e-04
4.883623e-04
4.970645e-04
5.055839e-04
5.140351e-04
5.220495e-04
5.294643e-04
5.365645e-04
5.438190e-04
5.510887e-04
5.585812e-04
5.670417e-04
5.757280e-04
5.846441e-04
5.945946e-04
6.047652e-04
6.145637e-04
6.242632e-04
6.339308e-04
6.438019e-04
6.536675e-04
6.643142e-04
6.758915e-04
6.880373e-04
7.016718e-04
7.160626e-04
7.307791e-04
7.454351e-04
7.597198e-04
7.744362e-04
7.901713e-04
8.072887e-04
8.255460e-04
8.435873e-04
8.615219e-04
8.799871e-04
8.972804e-04
9.133514e-04
9.286226e-04
9.439225e-04
9.598495e-04
9.767731e-04
9.957053e-04
1.013882e-03
1.028950e-03
1.045124e-03
1.062470e-03
1.080005e-03
1.097709e-03
1.116715e-03
1.135130e-03
1.153096e-03
1.170928e-03
1.189120e-03
1.205919e-03
1.221564e-03
1.235812e-03
1.247910e-03
1.258474e-03
1.264696e-03
1.269184e-03
1.273018e-03
1.274090e-03
1.275380e-03
1.275803e-03
1.271877e-03
1.264612e-03
1.260154e-03
1.257902e-03
1.257831e-03
1.258451e-03
1.258600e-03
1.255129e-03
1.245227e-03
1.231576e-03
1.217911e-03
1.204824e-03
1.188812e-03
1.173046e-03
1.160285e-03
1.151358e-03
1.141202e-03
1.134976e-03
1.130346e-03
1.129856e-03
1.135334e-03
1.142772e-03
1.153780e-03
1.164497e-03
1.174184e-03
1.184204e-03
1.194935e-03
1.205126e-03
1.211462e-03
1.215234e-03
1.217720e-03
1.217502e-03
1.213044e-03
1.209562e-03
1.205222e-03
1.199659e-03
1.194130e-03
1.188026e-03
1.181857e-03
1.181615e-03
1.184355e-03
1.186797e-03
1.191119e-03
1.192700e-03
1.192909e-03
1.187527e-03
1.179557e-03
1.172916e-03
1.169920e-03
1.164771e-03
1.158225e-03
1.149203e-03
1.139549e-03
1.131083e-03
1.122592e-03
1.115166e-03
1.104370e-03
1.090616e-03
1.076660e-03
1.064135e-03
1.053267e-03
1.042787e-03
1.033387e-03
1.023003e-03
1.014397e-03
1.007703e-03
1.001466e-03
9.951970e-04
9.900291e-04
9.842305e-04
9.771326e-04
9.698930e-04
9.635915e-04
9.572729e-04
9.508266e-04
9.464015e-04
9.406450e-04
9.345203e-04
9.290728e-04
9.252102e-04
9.220289e-04
9.192829e-04
9.182799e-04
9.179727e-04
9.180803e-04
9.195845e-04
9.205539e-04
9.198352e-04
9.184829e-04
9.171095e-04
9.170219e-04
9.167193e-04
9.183383e-04
9.203825e-04
9.209599e-04
9.199630e-04
9.218924e-04
9.353593e-04
9.658295e-04
1.038052e-03
9.326182e-04
1.184102e-03
1.628910e-03
1.795890e-03
1.486967e-03
5.851543e-04
4.084503e-04
4.760939e-04
4.886308e-04
4.952089e-04
5.045693e-04
5.141419e-04
5.239315e-04
5.348972e-04
5.455842e-04
5.562234e-04
5.669917e-04
5.777122e-04
5.883511e-04
5.992695e-04
6.103290e-04
6.213424e-04
6.325776e-04
6.446629e-04
6.572507e-04
6.700507e-04
6.824516e-04
6.964105e-04
7.121488e-04
7.284093e-04
7.447309e-04
7.605676e-04
7.764151e-04
7.922850e-04
8.082079e-04
8.243266e-04
8.411557e-04
8.588799e-04
8.770626e-04
8.973788e-04
9.187792e-04
9.416554e-04
9.643920e-04
9.866794e-04
1.010340e-03
1.037198e-03
1.068608e-03
1.100416e-03
1.130332e-03
1.159754e-03
1.190739e-03
1.221872e-03
1.253357e-03
1.284719e-03
1.314448e-03
1.344089e-03
1.373282e-03
1.401336e-03
1.430765e-03
1.460698e-03
1.489924e-03
1.519389e-03
1.548331e-03
1.578540e-03
1.607580e-03
1.636336e-03
1.665054e-03
1.695394e-03
1.726175e-03
1.753684e-03
1.779806e-03
1.805285e-03
1.829326e-03
1.853895e-03
1.878871e-03
1.903986e-03
1.931534e-03
1.960074e-03
1.985866e-03
2.009665e-03
2.030921e-03
2.052595e-03
2.073869e-03
2.093350e-03
2.110340e-03
2.126048e-03
2.140675e-03
2.152687e-03
2.158668e-03
2.157813e-03
2.153653e-03
2.149470e-03
2.144433e-03
2.139409e-03
2.132800e-03
2.125737e-03
2.122768e-03
2.122538e-03
2.130071e-03
2.139213e-03
2.149486e-03
2.159405e-03
2.174675e-03
2.190143e-03
2.199274e-03
2.208125e-03
2.215808e-03
2.228890e-03
2.235705e-03
2.240488e-03
2.242582e-03
2.241233e-03
2.239648e-03
2.234454e-03
2.224230e-03
2.210103e-03
2.191943e-03
2.169902e-03
2.148845e-03
2.125331e-03
2.097827e-03
2.070345e-03
2.046209e-03
2.030955e-03
2.013729e-03
1.995207e-03
1.978741e-03
1.962464e-03
1.943483e-03
1.925366e-03
1.911600e-03
1.898564e-03
1.885153e-03
1.875625e-03
1.868035e-03
1.862687e-03
1.859323e-03
1.854133e-03
1.847961e-03
1.841454e-03
1.833451e-03
1.821470e-03
1.807267e-03
1.790485e-03
1.772517e-03
1.755835e-03
1.736027e-03
1.712448e-03
1.687956e-03
1.664803e-03
1.643583e-03
1.622703e-03
1.601982e-03
1.582999e-03
1.564494e-03
1.546283e-03
1.526040e-03
1.499351e-03
1.472017e-03
1.446467e-03
1.422544e-03
1.401899e-03
1.383834e-03
1.366995e-03
1.352215e-03
1.336664e-03
1.321197e-03
1.309652e-03
1.300200e-03
1.289523e-03
1.280416e-03
1.272507e-03
1.265512e-03
1.256460e-03
1.246997e-03
1.237754e-03
1.231597e-03
1.245750e-03
1.313750e-03
1.397562e-03
1.370707e-03
1.772758e-03
2.473164e-03
2.580790e-03
2.168299e-03
5.557717e-04
4.428428e-04
4.952327e-04
5.083945e-04
5.160022e-04
5.254211e-04
5.352617e-04
5.451964e-04
5.555349e-04
5.667521e-04
5.786746e-04
5.916767e-04
6.055038e-04
6.206848e-04
6.355096e-04
6.508640e-04
6.668943e-04
6.837137e-04
7.008286e-04
7.182586e-04
7.359973e-04
7.537353e-04
7.720515e-04
7.910467e-04
8.105991e-04
8.307103e-04
8.514846e-04
8.721643e-04
8.916018e-04
9.124581e-04
9.332563e-04
9.543806e-04
9.762770e-04
1.000297e-03
1.025217e-03
1.054065e-03
1.085081e-03
1.117405e-03
1.152467e-03
1.189561e-03
1.226970e-03
1.263341e-03
1.297991e-03
1.332802e-03
1.368785e-03
1.405652e-03
1.443300e-03
1.482541e-03
1.520986e-03
1.559736e-03
1.598203e-03
1.637488e-03
1.675330e-03
1.712737e-03
1.751493e-03
1.789425e-03
1.826937e-03
1.865565e-03
1.905918e-03
1.943056e-03
1.980211e-03
2.019165e-03
2.058977e-03
2.098823e-03
2.133934e-03
2.165127e-03
2.197296e-03
2.230292e-03
2.264734e-03
2.302600e-03
2.341501e-03
2.382782e-03
2.424130e-03
2.463506e-03
2.507204e-03
2.553146e-03
2.602544e-03
2.648704e-03
2.687276e-03
2.720783e-03
2.748359e-03
2.776336e-03
2.807324e-03
2.834146e-03
2.857816e-03
2.876182e-03
2.889195e-03
2.901158e-03
2.915611e-03
2.928456e-03
2.938794e-03
2.952613e-03
2.966853e-03
2.985008e-03
3.006124e-03
3.026892e-03
3.051210e-03
3.078529e-03
3.103497e-03
3.126818e-03
3.150541e-03
3.174658e-03
3.198385e-03
3.216670e-03
3.231106e-03
3.243991e-03
3.258765e-03
3.271646e-03
3.278152e-03
3.281346e-03
3.276666e-03
3.268564e-03
3.253363e-03
3.234225e-03
3.216892e-03
3.200837e-03
3.181672e-03
3.159947e-03
3.137750e-03
3.117815e-03
3.094703e-03
3.067589e-03
3.033677e-03
2.993690e-03
2.951923e-03
2.910291e-03
2.869872e-03
2.832551e-03
2.798690e-03
2.775947e-03
2.763371e-03
2.753436e-03
2.745594e-03
2.736612e-03
2.726921e-03
2.719426e-03
2.707917e-03
2.695062e-03
2.680934e-03
2.664733e-03
2.648672e-03
2.633511e-03
2.612905e-03
2.586411e-03
2.556893e-03
2.524014e-03
2.487371e-03
2.456151e-03
2.425956e-03
2.392646e-03
2.355391e-03
2.314580e-03
2.272679e-03
2.230441e-03
2.187638e-03
2.143957e-03
2.099839e-03
2.049346e-03
1.997028e-03
1.944227e-03
1.893822e-03
1.845669e-03
1.804121e-03
1.773320e-03
1.746060e-03
1.717701e-03
1.688757e-03
1.661000e-03
1.634582e-03
1.609125e-03
1.588258e-03
1.572981e-03
1.578444e-03
1.677206e-03
1.882609e-03
1.911366e-03
2.469443e-03
3.313340e-03
3.198947e-03
2.626690e-03
5.378791e-04
4.526806e-04
5.050762e-04
5.188580e-04
5.258244e-04
5.360528e-04
5.471726e-04
5.598815e-04
5.731998e-04
5.873976e-04
6.022235e-04
6.176265e-04
6.327850e-04
6.480943e-04
6.641121e-04
6.816558e-04
6.993057e-04
7.176021e-04
7.365884e-04
7.556283e-04
7.748858e-04
7.942521e-04
8.139741e-04
8.343934e-04
8.550420e-04
8.763660e-04
8.970034e-04
9.177741e-04
9.404723e-04
9.635997e-04
9.878314e-04
1.015265e-03
1.043479e-03
1.073214e-03
1.105731e-03
1.142286e-03
1.179655e-03
1.218261e-03
1.258305e-03
1.297389e-03
1.335641e-03
1.373730e-03
1.411451e-03
1.451141e-03
1.491144e-03
1.532040e-03
1.573678e-03
1.616335e-03
1.657559e-03
1.698001e-03
1.740366e-03
1.782032e-03
1.823346e-03
1.866316e-03
1.912776e-03
1.956258e-03
1.998153e-03
2.039381e-03
2.079201e-03
2.120509e-03
2.159536e-03
2.197822e-03
2.237939e-03
2.276519e-03
2.315772e-03
2.354776e-03
2.392943e-03
2.433820e-03
2.475932e-03
2.519677e-03
2.569591e-03
2.622098e-03
2.676614e-03
2.736946e-03
2.797860e-03
2.861134e-03
2.918704e-03
2.970579e-03
3.011538e-03
3.044879e-03
3.075646e-03
3.108345e-03
3.142330e-03
3.170796e-03
3.196855e-03
3.218543e-03
3.238246e-03
3.260383e-03
3.282335e-03
3.300618e-03
3.315893e-03
3.337221e-03
3.359659e-03
3.383036e-03
3.411413e-03
3.445639e-03
3.483590e-03
3.517020e-03
3.548141e-03
3.579183e-03
3.607350e-03
3.636665e-03
3.668704e-03
3.699097e-03
3.728118e-03
3.750996e-03
3.768422e-03
3.783263e-03
3.793858e-03
3.799020e-03
3.803158e-03
3.811027e-03
3.813677e-03
3.812823e-03
3.806525e-03
3.790825e-03
3.770985e-03
3.748760e-03
3.722734e-03
3.691419e-03
3.663612e-03
3.631907e-03
3.594668e-03
3.558909e-03
3.519988e-03
3.483653e-03
3.448349e-03
3.411953e-03
3.381648e-03
3.355033e-03
3.335316e-03
3.318668e-03
3.303804e-03
3.287182e-03
3.270401e-03
3.254124e-03
3.239873e-03
3.222657e-03
3.207779e-03
3.193041e-03
3.177723e-03
3.158835e-03
3.133769e-03
3.101437e-03
3.062359e-03
3.015896e-03
2.969992e-03
2.925120e-03
2.884893e-03
2.847470e-03
2.802934e-03
2.752713e-03
2.704383e-03
2.658688e-03
2.613302e-03
2.562966e-03
2.510820e-03
2.456888e-03
2.400180e-03
2.340632e-03
2.278739e-03
2.218932e-03
2.164041e-03
2.109644e-03
2.059898e-03
2.015925e-03
1.977396e-03
1.941840e-03
1.909319e-03
1.877379e-03
1.847847e-03
1.824076e-03
1.829003e-03
1.928074e-03
2.185208e-03
2.264383e-03
2.963512e-03
3.722048e-03
3.571732e-03
2.900755e-03
5.211148e-04
4.615544e-04
5.196375e-04
5.320649e-04
5.403537e-04
5.518183e-04
5.642712e-04
5.777896e-04
5.922923e-04
6.077171e-04
6.237123e-04
6.399990e-04
6.557668e-04
6.723460e-04
6.895585e-04
7.074469e-04
7.256867e-04
7.441930e-04
7.628434e-04
7.815172e-04
8.004503e-04
8.202515e-04
8.404095e-04
8.610937e-04
8.831748e-04
9.053836e-04
9.284255e-04
9.538562e-04
9.815037e-04
1.010018e-03
1.038672e-03
1.070164e-03
1.103453e-03
1.138775e-03
1.175535e-03
1.216251e-03
1.256294e-03
1.296375e-03
1.335796e-03
1.375746e-03
1.415989e-03
1.456963e-03
1.498045e-03
1.540313e-03
1.581712e-03
1.623507e-03
1.666622e-03
1.711404e-03
1.754783e-03
1.797312e-03
1.841361e-03
1.886158e-03
1.933747e-03
1.979767e-03
2.025812e-03
2.070070e-03
2.112650e-03
2.151117e-03
2.189079e-03
2.232129e-03
2.276987e-03
2.322660e-03
2.368884e-03
2.416044e-03
2.464607e-03
2.515032e-03
2.564809e-03
2.615979e-03
2.667144e-03
2.721050e-03
2.776316e-03
2.834346e-03
2.890264e-03
2.952322e-03
3.018386e-03
3.080476e-03
3.139073e-03
3.184509e-03
3.219779e-03
3.248469e-03
3.277040e-03
3.308602e-03
3.341606e-03
3.371791e-03
3.397316e-03
3.423189e-03
3.452843e-03
3.482218e-03
3.511682e-03
3.540583e-03
3.565976e-03
3.591369e-03
3.620148e-03
3.652987e-03
3.688962e-03
3.729370e-03
3.767976e-03
3.803453e-03
3.841435e-03
3.876455e-03
3.907992e-03
3.942605e-03
3.981984e-03
4.021796e-03
4.055525e-03
4.081537e-03
4.103300e-03
4.121505e-03
4.132926e-03
4.137265e-03
4.140694e-03
4.146835e-03
4.152793e-03
4.158247e-03
4.155694e-03
4.145135e-03
4.128562e-03
4.104965e-03
4.079813e-03
4.049672e-03
4.015420e-03
3.978564e-03
3.944634e-03
3.914083e-03
3.884631e-03
3.852732e-03
3.816979e-03
3.784949e-03
3.755927e-03
3.732707e-03
3.710299e-03
3.688783e-03
3.668015e-03
3.650486e-03
3.629446e-03
3.605893e-03
3.583771e-03
3.560096e-03
3.538172e-03
3.516651e-03
3.496839e-03
3.475137e-03
3.450289e-03
3.421400e-03
3.388096e-03
3.351237e-03
3.306974e-03
3.259758e-03
3.208665e-03
3.156177e-03
3.100891e-03
3.041307e-03
2.984824e-03
2.931845e-03
2.876561e-03
2.816930e-03
2.757088e-03
2.692208e-03
2.631774e-03
2.571128e-03
2.508553e-03
2.447041e-03
2.383168e-03
2.326860e-03
2.270662e-03
2.218429e-03
2.169816e-03
2.126047e-03
2.084800e-03
2.045119e-03
2.008554e-03
1.979999e-03
1.981206e-03
2.085936e-03
2.372110e-03
2.482514e-03
3.240944e-03
3.931929e-03
3.765635e-03
3.068372e-03
4.941495e-04
4.674483e-04
5.348567e-04
5.525501e-04
5.624669e-04
5.747300e-04
5.882793e-04
6.029918e-04
6.183066e-04
6.337360e-04
6.490693e-04
6.645565e-04
6.807356e-04
6.966907e-04
7.136860e-04
7.313577e-04
7.495932e-04
7.685787e-04
7.882482e-04
8.084951e-04
8.292272e-04
8.514650e-04
8.732370e-04
8.960209e-04
9.189879e-04
9.436337e-04
9.713524e-04
9.994695e-04
1.028075e-03
1.059139e-03
1.091908e-03
1.126523e-03
1.163685e-03
1.202517e-03
1.241843e-03
1.281478e-03
1.321175e-03
1.359497e-03
1.400007e-03
1.442137e-03
1.484097e-03
1.525871e-03
1.567529e-03
1.609973e-03
1.653978e-03
1.697650e-03
1.743063e-03
1.788099e-03
1.834428e-03
1.880075e-03
1.928763e-03
1.976744e-03
2.025804e-03
2.073794e-03
2.120549e-03
2.167241e-03
2.212242e-03
2.256903e-03
2.303080e-03
2.348485e-03
2.393246e-03
2.439792e-03
2.488650e-03
2.539710e-03
2.594463e-03
2.654917e-03
2.715630e-03
2.771862e-03
2.824802e-03
2.876608e-03
2.928079e-03
2.984129e-03
3.040327e-03
3.100526e-03
3.164838e-03
3.231187e-03
3.289364e-03
3.338893e-03
3.377422e-03
3.410504e-03
3.443396e-03
3.477766e-03
3.514110e-03
3.548697e-03
3.578918e-03
3.607324e-03
3.639840e-03
3.676870e-03
3.714589e-03
3.752738e-03
3.784984e-03
3.818600e-03
3.857740e-03
3.900654e-03
3.941681e-03
3.984656e-03
4.023952e-03
4.061634e-03
4.098605e-03
4.132859e-03
4.166376e-03
4.201825e-03
4.237073e-03
4.272430e-03
4.306649e-03
4.339518e-03
4.364752e-03
4.384042e-03
4.394920e-03
4.400973e-03
4.403932e-03
4.409317e-03
4.418882e-03
4.423075e-03
4.417208e-03
4.405621e-03
4.388949e-03
4.366211e-03
4.338321e-03
4.312596e-03
4.283473e-03
4.251973e-03
4.221025e-03
4.188527e-03
4.155711e-03
4.127155e-03
4.100284e-03
4.072854e-03
4.043456e-03
4.023354e-03
4.004578e-03
3.988829e-03
3.971943e-03
3.947627e-03
3.923368e-03
3.902428e-03
3.880812e-03
3.859091e-03
3.834378e-03
3.804038e-03
3.775504e-03
3.748436e-03
3.718391e-03
3.688847e-03
3.655736e-03
3.619105e-03
3.578653e-03
3.537354e-03
3.490630e-03
3.440092e-03
3.384057e-03
3.324287e-03
3.266083e-03
3.209153e-03
3.149694e-03
3.080337e-03
3.007380e-03
2.932810e-03
2.858762e-03
2.785093e-03
2.715951e-03
2.641054e-03
2.574233e-03
2.510058e-03
2.450480e-03
2.394095e-03
2.341057e-03
2.289507e-03
2.239221e-03
2.190346e-03
2.143374e-03
2.107071e-03
2.104014e-03
2.215194e-03
2.534805e-03
2.719246e-03
3.482443e-03
4.085743e-03
3.892998e-03
3.206467e-03
4.386141e-04
4.674737e-04
5.612060e-04
5.759263e-04
5.867060e-04
6.001053e-04
6.138698e-04
6.278843e-04
6.426190e-04
6.574663e-04
6.727572e-04
6.893962e-04
7.069239e-04
7.253594e-04
7.438230e-04
7.621732e-04
7.810334e-04
7.999297e-04
8.205061e-04
8.439428e-04
8.675012e-04
8.902620e-04
9.149399e-04
9.403914e-04
9.650922e-04
9.916124e-04
1.017903e-03
1.047017e-03
1.079822e-03
1.112961e-03
1.147606e-03
1.184002e-03
1.221460e-03
1.260661e-03
1.299899e-03
1.338118e-03
1.375739e-03
1.415843e-03
1.456960e-03
1.498391e-03
1.541897e-03
1.587006e-03
1.631348e-03
1.675069e-03
1.719095e-03
1.762765e-03
1.807246e-03
1.853663e-03
1.901808e-03
1.954246e-03
2.007378e-03
2.061417e-03
2.114280e-03
2.166035e-03
2.216282e-03
2.263293e-03
2.309175e-03
2.356327e-03
2.401649e-03
2.446399e-03
2.493882e-03
2.540375e-03
2.589960e-03
2.642535e-03
2.695214e-03
2.752026e-03
2.812291e-03
2.875213e-03
2.935189e-03
2.994356e-03
3.051196e-03
3.108074e-03
3.165675e-03
3.227006e-03
3.293991e-03
3.357690e-03
3.412270e-03
3.457350e-03
3.498368e-03
3.535351e-03
3.572079e-03
3.612882e-03
3.653636e-03
3.692867e-03
3.730270e-03
3.765198e-03
3.804180e-03
3.843096e-03
3.884578e-03
3.925846e-03
3.962383e-03
3.996689e-03
4.036418e-03
4.079570e-03
4.124361e-03
4.164796e-03
4.199666e-03
4.235472e-03
4.273726e-03
4.307661e-03
4.338508e-03
4.368659e-03
4.402092e-03
4.437757e-03
4.473117e-03
4.504966e-03
4.534859e-03
4.557207e-03
4.573302e-03
4.584927e-03
4.596744e-03
4.607794e-03
4.616499e-03
4.616414e-03
4.609115e-03
4.596967e-03
4.579707e-03
4.561787e-03
4.541238e-03
4.520426e-03
4.497222e-03
4.473237e-03
4.447853e-03
4.419337e-03
4.394120e-03
4.364454e-03
4.333703e-03
4.307629e-03
4.282675e-03
4.262382e-03
4.246253e-03
4.231497e-03
4.215011e-03
4.194582e-03
4.173726e-03
4.152261e-03
4.131397e-03
4.110069e-03
4.089281e-03
4.067068e-03
4.040432e-03
4.011689e-03
3.982690e-03
3.952680e-03
3.917283e-03
3.879335e-03
3.838627e-03
3.796209e-03
3.748120e-03
3.700480e-03
3.648840e-03
3.593892e-03
3.538729e-03
3.478522e-03
3.414416e-03
3.344258e-03
3.266907e-03
3.181476e-03
3.091847e-03
3.010265e-03
2.928762e-03
2.848018e-03
2.767984e-03
2.696026e-03
2.623969e-03
2.557392e-03
2.498999e-03
2.439377e-03
2.380018e-03
2.324857e-03
2.274193e-03
2.232354e-03
2.226021e-03
2.340421e-03
2.678885e-03
2.988948e-03
3.693874e-03
4.212039e-03
3.993872e-03
3.332443e-03
3.503026e-04
4.692819e-04
5.808702e-04
5.984631e-04
6.089324e-04
6.229824e-04
6.368958e-04
6.515660e-04
6.668708e-04
6.824630e-04
6.988504e-04
7.154849e-04
7.333615e-04
7.518893e-04
7.708325e-04
7.913925e-04
8.120991e-04
8.337708e-04
8.557379e-04
8.792374e-04
9.035064e-04
9.280970e-04
9.532704e-04
9.787384e-04
1.004093e-03
1.033922e-03
1.065121e-03
1.097497e-03
1.130189e-03
1.164353e-03
1.199348e-03
1.235064e-03
1.271825e-03
1.307896e-03
1.344588e-03
1.383756e-03
1.423329e-03
1.463957e-03
1.507563e-03
1.550869e-03
1.593500e-03
1.637810e-03
1.683419e-03
1.728937e-03
1.774707e-03
1.819997e-03
1.865881e-03
1.918123e-03
1.976625e-03
2.034064e-03
2.090134e-03
2.143897e-03
2.194557e-03
2.242061e-03
2.290791e-03
2.338236e-03
2.383569e-03
2.426023e-03
2.471756e-03
2.518724e-03
2.564191e-03
2.612169e-03
2.664254e-03
2.717283e-03
2.770130e-03
2.823496e-03
2.882447e-03
2.944124e-03
3.009438e-03
3.075295e-03
3.137867e-03
3.195482e-03
3.253791e-03
3.314236e-03
3.372678e-03
3.427059e-03
3.479066e-03
3.528973e-03
3.576034e-03
3.618493e-03
3.657740e-03
3.699256e-03
3.743853e-03
3.790291e-03
3.835573e-03
3.878388e-03
3.920072e-03
3.957759e-03
3.997828e-03
4.036624e-03
4.072347e-03
4.108193e-03
4.142766e-03
4.180446e-03
4.217789e-03
4.252417e-03
4.285029e-03
4.320292e-03
4.357407e-03
4.392700e-03
4.424671e-03
4.456203e-03
4.490943e-03
4.528573e-03
4.563450e-03
4.594971e-03
4.622719e-03
4.644362e-03
4.659853e-03
4.669336e-03
4.678756e-03
4.692173e-03
4.706322e-03
4.716025e-03
4.720449e-03
4.717675e-03
4.712632e-03
4.709441e-03
4.700543e-03
4.684905e-03
4.667598e-03
4.650686e-03
4.631187e-03
4.608503e-03
4.584337e-03
4.558077e-03
4.532366e-03
4.505181e-03
4.476888e-03
4.456472e-03
4.437416e-03
4.423145e-03
4.409210e-03
4.395136e-03
4.378872e-03
4.360392e-03
4.339305e-03
4.318436e-03
4.298639e-03
4.279727e-03
4.258528e-03
4.233140e-03
4.207117e-03
4.178993e-03
4.151012e-03
4.120193e-03
4.086964e-03
4.050437e-03
4.006021e-03
3.959297e-03
3.905952e-03
3.846384e-03
3.787585e-03
3.726992e-03
3.659833e-03
3.588074e-03
3.507053e-03
3.421706e-03
3.331344e-03
3.237452e-03
3.142363e-03
3.052795e-03
2.964608e-03
2.879775e-03
2.803124e-03
2.728827e-03
2.658888e-03
2.595095e-03
2.532968e-03
2.468320e-03
2.406527e-03
2.355479e-03
2.342611e-03
2.459517e-03
2.839630e-03
3.228172e-03
3.877012e-03
4.303132e-03
4.061751e-03
3.446110e-03
2.738688e-04
4.518843e-04
5.931960e-04
6.071437e-04
6.184026e-04
6.321784e-04
6.461809e-04
6.610055e-04
6.768382e-04
6.933364e-04
7.092400e-04
7.271036e-04
7.466061e-04
7.667402e-04
7.865463e-04
8.067737e-04
8.279511e-04
8.499582e-04
8.732426e-04
8.972525e-04
9.218299e-04
9.473936e-04
9.738896e-04
1.003547e-03
1.034054e-03
1.066419e-03
1.100065e-03
1.133780e-03
1.166377e-03
1.199196e-03
1.233179e-03
1.267438e-03
1.302161e-03
1.339415e-03
1.379330e-03
1.421855e-03
1.465351e-03
1.510416e-03
1.555127e-03
1.597628e-03
1.639184e-03
1.681683e-03
1.729201e-03
1.778265e-03
1.829821e-03
1.880862e-03
1.933080e-03
1.987786e-03
2.040852e-03
2.095609e-03
2.150310e-03
2.201510e-03
2.250237e-03
2.295929e-03
2.340224e-03
2.384057e-03
2.428562e-03
2.471977e-03
2.516044e-03
2.562500e-03
2.611890e-03
2.660931e-03
2.712701e-03
2.764793e-03
2.816757e-03
2.870908e-03
2.928958e-03
2.989688e-03
3.054753e-03
3.119033e-03
3.178491e-03
3.236664e-03
3.292707e-03
3.349979e-03
3.405235e-03
3.458824e-03
3.511367e-03
3.557798e-03
3.600661e-03
3.643372e-03