/*--------------------------------*- C++ -*----------------------------------*\
| =========                 |                                                 |
| \\      /  F ield         | OpenFOAM: The Open Source CFD Toolbox           |
|  \\    /   O peration     | Version:  v2406                                 |
|   \\  /    A nd           | Website:  www.openfoam.com                      |
|    \\/     M anipulation  |                                                 |
\*---------------------------------------------------------------------------*/
FoamFile
{
    version     2.0;
    format      ascii;
    class       volScalarField;
    location    "predicted";
    object      p;
}
// * * * * * * * * * * * * * * * * * * * * * * * * * * * * * * * * * * * * * //

dimensions      [0 2 -2 0 0 0 0];

internalField   nonuniform List<scalar>
49181
(
-5.580684e+00
-5.475761e+00
-5.644373e+00
-6.552082e+00
-6.817991e+00
-6.960707e+00
-7.079984e+00
-7.191062e+00
-7.283945e+00
-7.380746e+00
-7.427984e+00
-7.448260e+00
-7.410975e+00
-7.329268e+00
-7.151484e+00
-6.944490e+00
-6.948621e+00
-6.438939e+00
-5.367880e+00
-5.415632e+00
-5.740632e+00
-6.106195e+00
-6.298183e+00
-6.377243e+00
-6.439055e+00
-6.487101e+00
-6.509872e+00
-6.495871e+00
-6.487964e+00
-6.492947e+00
-6.468347e+00
-6.430191e+00
-6.373717e+00
-6.290037e+00
-6.197161e+00
-6.112650e+00
-5.391828e+00
-5.763524e+00
-5.841597e+00
-6.203949e+00
-6.378261e+00
-6.462199e+00
-6.519140e+00
-6.571928e+00
-6.621828e+00
-6.650075e+00
-6.695388e+00
-6.729393e+00
-6.660200e+00
-6.574754e+00
-6.489262e+00
-6.470282e+00
-6.465100e+00
-6.604106e+00
-6.092476e+00
-6.109980e+00
-6.141155e+00
-6.439328e+00
-6.612037e+00
-6.706969e+00
-6.799221e+00
-6.880206e+00
-6.947206e+00
-7.000735e+00
-7.082553e+00
-7.060202e+00
-6.979869e+00
-6.930877e+00
-6.781182e+00
-6.705594e+00
-6.720549e+00
-6.951742e+00
-6.185656e+00
-6.242142e+00
-6.218066e+00
-6.474903e+00
-6.622968e+00
-6.710158e+00
-6.787652e+00
-6.863614e+00
-6.929834e+00
-6.983373e+00
-7.043613e+00
-7.055128e+00
-6.973064e+00
-6.906130e+00
-6.770788e+00
-6.710300e+00
-6.715741e+00
-6.932946e+00
-6.121006e+00
-6.274373e+00
-6.200473e+00
-6.432781e+00
-6.564206e+00
-6.635219e+00
-6.699093e+00
-6.762035e+00
-6.819482e+00
-6.876800e+00
-6.925768e+00
-6.940394e+00
-6.851329e+00
-6.799936e+00
-6.688501e+00
-6.637586e+00
-6.643103e+00
-6.847692e+00
-6.031030e+00
-6.244479e+00
-6.167929e+00
-6.397041e+00
-6.519017e+00
-6.585397e+00
-6.641470e+00
-6.694437e+00
-6.748435e+00
-6.804630e+00
-6.849393e+00
-6.855915e+00
-6.774085e+00
-6.728796e+00
-6.629293e+00
-6.589519e+00
-6.592245e+00
-6.774405e+00
-5.936525e+00
-6.178800e+00
-6.154096e+00
-6.379646e+00
-6.479771e+00
-6.542979e+00
-6.600860e+00
-6.653783e+00
-6.705323e+00
-6.753882e+00
-6.796347e+00
-6.804346e+00
-6.731042e+00
-6.683504e+00
-6.588276e+00
-6.554201e+00
-6.551089e+00
-6.716259e+00
-5.841371e+00
-6.121058e+00
-6.172359e+00
-6.389367e+00
-6.490638e+00
-6.529220e+00
-6.582710e+00
-6.632614e+00
-6.674966e+00
-6.712183e+00
-6.746297e+00
-6.753525e+00
-6.689723e+00
-6.659279e+00
-6.574224e+00
-6.551158e+00
-6.541915e+00
-6.682410e+00
-5.765375e+00
-6.083142e+00
-6.205163e+00
-6.415393e+00
-6.505763e+00
-6.537216e+00
-6.567524e+00
-6.611873e+00
-6.654942e+00
-6.688229e+00
-6.714696e+00
-6.722161e+00
-6.664674e+00
-6.636119e+00
-6.559114e+00
-6.557988e+00
-6.534997e+00
-6.641976e+00
-5.698026e+00
-6.043857e+00
-6.234855e+00
-6.433931e+00
-6.522413e+00
-6.548398e+00
-6.567058e+00
-6.582329e+00
-6.619195e+00
-6.653645e+00
-6.681587e+00
-6.689577e+00
-6.631110e+00
-6.604864e+00
-6.570194e+00
-6.575936e+00
-6.557641e+00
-6.622688e+00
-5.615060e+00
-6.030313e+00
-6.234333e+00
-6.435817e+00
-6.518699e+00
-6.543439e+00
-6.560615e+00
-6.580326e+00
-6.600653e+00
-6.627583e+00
-6.651144e+00
-6.656206e+00
-6.599815e+00
-6.597269e+00
-6.566448e+00
-6.571453e+00
-6.554135e+00
-6.628844e+00
-5.533281e+00
-6.026336e+00
-6.223574e+00
-6.425297e+00
-6.503878e+00
-6.528529e+00
-6.547066e+00
-6.566943e+00
-6.589641e+00
-6.608944e+00
-6.627564e+00
-6.631668e+00
-6.579107e+00
-6.587067e+00
-6.552943e+00
-6.564263e+00
-6.546151e+00
-6.620846e+00
-5.458729e+00
-6.020924e+00
-6.212979e+00
-6.416492e+00
-6.488887e+00
-6.515847e+00
-6.535337e+00
-6.555017e+00
-6.577538e+00
-6.594292e+00
-6.610997e+00
-6.610002e+00
-6.561985e+00
-6.572002e+00
-6.541746e+00
-6.552758e+00
-6.536175e+00
-6.617610e+00
-5.391138e+00
-6.009887e+00
-6.204761e+00
-6.412806e+00
-6.476150e+00
-6.501405e+00
-6.520392e+00
-6.543116e+00
-6.567106e+00
-6.588376e+00
-6.600017e+00
-6.594677e+00
-6.544076e+00
-6.560529e+00
-6.529092e+00
-6.541361e+00
-6.523736e+00
-6.607567e+00
-5.327206e+00
-6.001452e+00
-6.205278e+00
-6.412869e+00
-6.472485e+00
-6.488480e+00
-6.505965e+00
-6.525821e+00
-6.550196e+00
-6.570147e+00
-6.585340e+00
-6.578083e+00
-6.528537e+00
-6.542564e+00
-6.515366e+00
-6.538017e+00
-6.516529e+00
-6.589650e+00
-5.263113e+00
-5.991585e+00
-6.203871e+00
-6.402309e+00
-6.468028e+00
-6.477424e+00
-6.485969e+00
-6.503274e+00
-6.523973e+00
-6.545292e+00
-6.558616e+00
-6.550912e+00
-6.500615e+00
-6.515359e+00
-6.500449e+00
-6.537599e+00
-6.514191e+00
-6.569192e+00
-5.193478e+00
-5.973699e+00
-6.204345e+00
-6.395598e+00
-6.462535e+00
-6.467709e+00
-6.465909e+00
-6.472168e+00
-6.488249e+00
-6.503607e+00
-6.515914e+00
-6.509209e+00
-6.456600e+00
-6.480217e+00
-6.493698e+00
-6.531707e+00
-6.506482e+00
-6.546123e+00
-5.149790e+00
-5.983172e+00
-6.213961e+00
-6.415408e+00
-6.472811e+00
-6.475376e+00
-6.471927e+00
-6.471819e+00
-6.469349e+00
-6.473632e+00
-6.477894e+00
-6.466102e+00
-6.419139e+00
-6.468128e+00
-6.492488e+00
-6.526978e+00
-6.506809e+00
-6.540786e+00
-5.240390e+00
-5.996045e+00
-6.270288e+00
-6.464215e+00
-6.518277e+00
-6.517893e+00
-6.513845e+00
-6.513756e+00
-6.510982e+00
-6.511145e+00
-6.513859e+00
-6.499332e+00
-6.451607e+00
-6.504255e+00
-6.527652e+00
-6.560803e+00
-6.549105e+00
-6.586931e+00
-4.683454e+00
-5.880357e+00
-6.273306e+00
-6.489904e+00
-6.541549e+00
-6.545503e+00
-6.543608e+00
-6.545454e+00
-6.552938e+00
-6.562656e+00
-6.570010e+00
-6.556611e+00
-6.499945e+00
-6.539654e+00
-6.560228e+00
-6.586771e+00
-6.585697e+00
-6.564858e+00
-4.072891e+00
-5.258183e+00
-6.041809e+00
-6.325735e+00
-6.385837e+00
-6.399773e+00
-6.414975e+00
-6.435401e+00
-6.459129e+00
-6.479243e+00
-6.493059e+00
-6.481793e+00
-6.427699e+00
-6.454848e+00
-6.432234e+00
-6.446638e+00
-6.405050e+00
-6.413189e+00
-4.633175e+00
-5.535182e+00
-6.027371e+00
-6.385647e+00
-6.447211e+00
-6.468459e+00
-6.488740e+00
-6.512493e+00
-6.535962e+00
-6.553906e+00
-6.565063e+00
-6.553751e+00
-6.499390e+00
-6.535313e+00
-6.508051e+00
-6.521012e+00
-6.505766e+00
-6.448793e+00
-5.061075e+00
-5.637354e+00
-6.055818e+00
-6.425985e+00
-6.485502e+00
-6.507182e+00
-6.526582e+00
-6.551737e+00
-6.576120e+00
-6.594876e+00
-6.606347e+00
-6.594294e+00
-6.537626e+00
-6.575035e+00
-6.547816e+00
-6.562001e+00
-6.550965e+00
-6.511251e+00
-5.151528e+00
-5.655323e+00
-6.070920e+00
-6.430600e+00
-6.488628e+00
-6.506987e+00
-6.523568e+00
-6.549471e+00
-6.572862e+00
-6.593831e+00
-6.604389e+00
-6.591053e+00
-6.537251e+00
-6.572981e+00
-6.548250e+00
-6.563865e+00
-6.552059e+00
-6.523680e+00
-5.146794e+00
-5.664972e+00
-6.073127e+00
-6.419669e+00
-6.480352e+00
-6.493752e+00
-6.510132e+00
-6.533967e+00
-6.557489e+00
-6.577800e+00
-6.591625e+00
-6.578176e+00
-6.523291e+00
-6.559430e+00
-6.540076e+00
-6.559138e+00
-6.541150e+00
-6.522499e+00
-5.112512e+00
-5.591108e+00
-6.026933e+00
-6.355311e+00
-6.428320e+00
-6.443507e+00
-6.460125e+00
-6.481780e+00
-6.506477e+00
-6.532917e+00
-6.552960e+00
-6.541793e+00
-6.488735e+00
-6.526656e+00
-6.516151e+00
-6.529203e+00
-6.510855e+00
-6.485892e+00
-4.483398e+00
-5.482946e+00
-5.835785e+00
-6.186403e+00
-6.270511e+00
-6.305880e+00
-6.329544e+00
-6.358375e+00
-6.397520e+00
-6.443699e+00
-6.480824e+00
-6.492004e+00
-6.427112e+00
-6.478662e+00
-6.472438e+00
-6.518044e+00
-6.461762e+00
-6.436544e+00
-3.563290e+00
-4.937082e+00
-5.620151e+00
-6.001723e+00
-6.119715e+00
-6.155326e+00
-6.186406e+00
-6.228385e+00
-6.308591e+00
-6.373539e+00
-6.437010e+00
-6.456586e+00
-6.441085e+00
-6.457919e+00
-6.456780e+00
-6.489363e+00
-6.465477e+00
-6.406898e+00
-4.022848e+00
-3.311757e+00
-4.708587e+00
-5.442366e+00
-5.608404e+00
-5.702810e+00
-5.776809e+00
-5.883892e+00
-5.972749e+00
-6.057720e+00
-6.243178e+00
-6.408575e+00
-6.434046e+00
-6.354747e+00
-6.248535e+00
-6.237573e+00
-6.298330e+00
-6.372060e+00
-5.552290e+00
-6.340910e+00
-6.095034e+00
-6.448153e+00
-6.444710e+00
-6.442145e+00
-6.440855e+00
-6.440384e+00
-6.442403e+00
-6.444473e+00
-6.449517e+00
-6.463471e+00
-6.478271e+00
-6.495528e+00
-6.515119e+00
-6.536005e+00
-6.559389e+00
-6.582528e+00
-6.606999e+00
-6.633408e+00
-6.658009e+00
-6.681499e+00
-6.704994e+00
-6.729501e+00
-6.754958e+00
-6.782316e+00
-6.811107e+00
-6.844840e+00
-6.878037e+00
-6.913310e+00
-6.951112e+00
-6.990964e+00
-7.030720e+00
-7.068686e+00
-7.105142e+00
-7.142576e+00
-7.181536e+00
-7.221560e+00
-7.262535e+00
-7.306098e+00
-7.352842e+00
-7.401617e+00
-7.451574e+00
-7.501963e+00
-7.549856e+00
-7.595792e+00
-7.642482e+00
-7.686376e+00
-7.728838e+00
-7.769987e+00
-7.808370e+00
-7.842018e+00
-7.870810e+00
-7.894232e+00
-7.911197e+00
-7.925724e+00
-7.936894e+00
-7.945519e+00
-7.953846e+00
-7.956604e+00
-7.954502e+00
-7.944149e+00
-7.925130e+00
-7.901670e+00
-7.867374e+00
-7.822829e+00
-7.765188e+00
-7.691971e+00
-7.604998e+00
-7.496867e+00
-7.375919e+00
-7.248006e+00
-7.116560e+00
-6.975586e+00
-6.829343e+00
-6.686491e+00
-6.552651e+00
-6.414319e+00
-6.262369e+00
-6.099084e+00
-5.921183e+00
-5.727920e+00
-5.504854e+00
-5.247510e+00
-4.957218e+00
-4.635488e+00
-4.297865e+00
-3.940900e+00
-3.568673e+00
-3.173352e+00
-2.781245e+00
-2.371255e+00
-1.957073e+00
-1.550347e+00
-1.154533e+00
-7.551794e-01
-3.378667e-01
1.017444e-01
5.156714e-01
8.913584e-01
1.254392e+00
1.599548e+00
1.948602e+00
2.290019e+00
2.629506e+00
2.984379e+00
3.335029e+00
3.682016e+00
4.021120e+00
4.349641e+00
4.664439e+00
4.975391e+00
5.263855e+00
5.541674e+00
5.819011e+00
6.117849e+00
6.442494e+00
6.777769e+00
7.074655e+00
7.328900e+00
7.562635e+00
7.780690e+00
7.982302e+00
8.159849e+00
8.324291e+00
8.478168e+00
8.622344e+00
8.756717e+00
8.893568e+00
9.018550e+00
9.136045e+00
9.250007e+00
9.354480e+00
9.445651e+00
9.528451e+00
9.603868e+00
9.665460e+00
9.720674e+00
9.762086e+00
9.789261e+00
9.803391e+00
9.798814e+00
9.786274e+00
9.760300e+00
9.722383e+00
9.687372e+00
9.655108e+00
9.615239e+00
9.568772e+00
9.524420e+00
9.473481e+00
9.416688e+00
9.354467e+00
9.288283e+00
9.208564e+00
9.131688e+00
9.055724e+00
8.971990e+00
8.882777e+00
8.795015e+00
8.702760e+00
8.608902e+00
8.522560e+00
8.436071e+00
8.347667e+00
8.266218e+00
8.190052e+00
8.112463e+00
8.056308e+00
7.997331e+00
7.940415e+00
7.921440e+00
8.099442e+00
8.785783e+00
9.897184e+00
1.017312e+01
9.875006e+00
9.118100e+00
8.947771e+00
9.278321e+00
-6.329698e+00
-6.650237e+00
-6.808715e+00
-6.841782e+00
-6.859210e+00
-6.855215e+00
-6.845057e+00
-6.837626e+00
-6.831076e+00
-6.827310e+00
-6.824648e+00
-6.822533e+00
-6.821499e+00
-6.820220e+00
-6.818519e+00
-6.819180e+00
-6.826360e+00
-6.834571e+00
-6.845331e+00
-6.858949e+00
-6.879894e+00
-6.901664e+00
-6.924571e+00
-6.945497e+00
-6.967538e+00
-6.992342e+00
-7.019149e+00
-7.046376e+00
-7.073478e+00
-7.099249e+00
-7.126432e+00
-7.154161e+00
-7.183840e+00
-7.216292e+00
-7.250722e+00
-7.285021e+00
-7.318569e+00
-7.354734e+00
-7.392454e+00
-7.428942e+00
-7.464814e+00
-7.501013e+00
-7.539036e+00
-7.580885e+00
-7.624478e+00
-7.668896e+00
-7.711493e+00
-7.750836e+00
-7.785730e+00
-7.817548e+00
-7.846298e+00
-7.871084e+00
-7.894467e+00
-7.917714e+00
-7.938917e+00
-7.956782e+00
-7.974960e+00
-7.987366e+00
-7.994425e+00
-7.992264e+00
-7.980599e+00
-7.962963e+00
-7.940084e+00
-7.913623e+00
-7.881046e+00
-7.839880e+00
-7.790530e+00
-7.740417e+00
-7.696518e+00
-7.642248e+00
-7.576936e+00
-7.502973e+00
-7.417155e+00
-7.314786e+00
-7.195299e+00
-7.073689e+00
-6.943747e+00
-6.789625e+00
-6.631597e+00
-6.466991e+00
-6.293195e+00
-6.102640e+00
-5.902421e+00
-5.687960e+00
-5.454406e+00
-5.188023e+00
-4.894962e+00
-4.582153e+00
-4.254803e+00
-3.885892e+00
-3.480861e+00
-3.110903e+00
-2.780414e+00
-2.442192e+00
-2.092950e+00
-1.737612e+00
-1.369640e+00
-9.849881e-01
-5.908237e-01
-1.925574e-01
2.283259e-01
6.565366e-01
1.084257e+00
1.490550e+00
1.901820e+00
2.318639e+00
2.700909e+00
3.062763e+00
3.410013e+00
3.747782e+00
4.081166e+00
4.409008e+00
4.732979e+00
5.047724e+00
5.362553e+00
5.684990e+00
5.991354e+00
6.302502e+00
6.600581e+00
6.874039e+00
7.112795e+00
7.345887e+00
7.556954e+00
7.751878e+00
7.926414e+00
8.085970e+00
8.233542e+00
8.373360e+00
8.502998e+00
8.613841e+00
8.712509e+00
8.805676e+00
8.886657e+00
8.964143e+00
9.036341e+00
9.092773e+00
9.136923e+00
9.172624e+00
9.195264e+00
9.199121e+00
9.190793e+00
9.172680e+00
9.146033e+00
9.119965e+00
9.086466e+00
9.039902e+00
8.985856e+00
8.927202e+00
8.866531e+00
8.805767e+00
8.747073e+00
8.672253e+00
8.585265e+00
8.483527e+00
8.369672e+00
8.244447e+00
8.127532e+00
8.033792e+00
7.942128e+00
7.848910e+00
7.757391e+00
7.656396e+00
7.551928e+00
7.461838e+00
7.366286e+00
7.275439e+00
7.207206e+00
7.157595e+00
7.113995e+00
7.072210e+00
7.040667e+00
7.030647e+00
7.110449e+00
7.509308e+00
8.717538e+00
9.136750e+00
9.752445e+00
1.056535e+01
1.103824e+01
1.199744e+01
-6.047246e+00
-6.740933e+00
-6.673311e+00
-6.732315e+00
-6.749802e+00
-6.743740e+00
-6.735290e+00
-6.730446e+00
-6.727888e+00
-6.727020e+00
-6.727309e+00
-6.728368e+00
-6.732611e+00
-6.737828e+00
-6.743798e+00
-6.749395e+00
-6.755472e+00
-6.760459e+00
-6.764553e+00
-6.771822e+00
-6.781675e+00
-6.799289e+00
-6.821420e+00
-6.845907e+00
-6.872864e+00
-6.902047e+00
-6.930653e+00
-6.960028e+00
-6.988115e+00
-7.014599e+00
-7.039972e+00
-7.069276e+00
-7.104015e+00
-7.140766e+00
-7.183071e+00
-7.227425e+00
-7.270977e+00
-7.315360e+00
-7.358786e+00
-7.401243e+00
-7.441626e+00
-7.477926e+00
-7.512646e+00
-7.548170e+00
-7.588423e+00
-7.631126e+00
-7.676091e+00
-7.722839e+00
-7.765799e+00
-7.806358e+00
-7.841637e+00
-7.873981e+00
-7.904722e+00
-7.932066e+00
-7.955327e+00
-7.977842e+00
-7.991213e+00
-7.995674e+00
-7.992205e+00
-7.976529e+00
-7.952608e+00
-7.920192e+00
-7.879151e+00
-7.832886e+00
-7.782923e+00
-7.729425e+00
-7.671966e+00
-7.606526e+00
-7.541247e+00
-7.466387e+00
-7.383126e+00
-7.286525e+00
-7.178696e+00
-7.074043e+00
-6.964978e+00
-6.848244e+00
-6.722515e+00
-6.585207e+00
-6.447970e+00
-6.304855e+00
-6.135043e+00
-5.931915e+00
-5.708554e+00
-5.458283e+00
-5.197517e+00
-4.947149e+00
-4.672568e+00
-4.409591e+00
-4.133814e+00
-3.830875e+00
-3.502931e+00
-3.177278e+00
-2.860640e+00
-2.551835e+00
-2.240976e+00
-1.926670e+00
-1.615620e+00
-1.271534e+00
-9.078432e-01
-5.215654e-01
-1.204599e-01
2.821417e-01
6.847232e-01
1.095149e+00
1.514241e+00
1.917979e+00
2.317744e+00
2.711631e+00
3.076324e+00
3.434528e+00
3.793045e+00
4.137403e+00
4.453064e+00
4.775898e+00
5.078267e+00
5.344083e+00
5.587342e+00
5.831303e+00
6.073103e+00
6.297270e+00
6.525318e+00
6.746095e+00
6.964099e+00
7.174982e+00
7.376378e+00
7.574074e+00
7.763665e+00
7.949088e+00
8.127921e+00
8.299145e+00
8.471059e+00
8.632005e+00
8.777597e+00
8.910338e+00
9.023841e+00
9.123174e+00
9.204729e+00
9.271617e+00
9.323704e+00
9.360062e+00
9.385731e+00
9.393270e+00
9.390335e+00
9.380978e+00
9.369531e+00
9.351828e+00
9.328685e+00
9.300664e+00
9.272085e+00
9.230010e+00
9.172854e+00
9.102551e+00
9.010516e+00
8.906145e+00
8.787599e+00
8.651939e+00
8.512700e+00
8.362688e+00
8.206666e+00
8.039406e+00
7.865619e+00
7.697381e+00
7.536871e+00
7.381990e+00
7.236512e+00
7.103709e+00
6.986939e+00
6.894386e+00
6.819452e+00
6.774708e+00
6.732086e+00
6.707640e+00
6.837144e+00
7.411298e+00
8.645440e+00
8.308450e+00
8.082639e+00
9.484650e+00
1.054163e+01
1.185984e+01
-6.406302e+00
-6.795241e+00
-6.727075e+00
-6.875265e+00
-6.915282e+00
-6.923992e+00
-6.926736e+00
-6.929769e+00
-6.934440e+00
-6.940673e+00
-6.944927e+00
-6.949671e+00
-6.955401e+00
-6.963460e+00
-6.972968e+00
-6.983597e+00
-6.992609e+00
-7.000675e+00
-7.012348e+00
-7.027916e+00
-7.044049e+00
-7.058111e+00
-7.069826e+00
-7.079688e+00
-7.095145e+00
-7.116098e+00
-7.141601e+00
-7.167483e+00
-7.197592e+00
-7.231612e+00
-7.262231e+00
-7.293413e+00
-7.326958e+00
-7.360707e+00
-7.395113e+00
-7.432544e+00
-7.474500e+00
-7.522451e+00
-7.571881e+00
-7.621305e+00
-7.667259e+00
-7.709977e+00
-7.750933e+00
-7.788510e+00
-7.826703e+00
-7.871324e+00
-7.915053e+00
-7.957000e+00
-7.998565e+00
-8.036937e+00
-8.074543e+00
-8.111777e+00
-8.147314e+00
-8.178895e+00
-8.204235e+00
-8.224106e+00
-8.235630e+00
-8.238311e+00
-8.231331e+00
-8.217077e+00
-8.192045e+00
-8.157619e+00
-8.116492e+00
-8.073757e+00
-8.028577e+00
-7.976640e+00
-7.917449e+00
-7.849646e+00
-7.772626e+00
-7.679514e+00
-7.581006e+00
-7.474525e+00
-7.361678e+00
-7.240319e+00
-7.115878e+00
-6.973637e+00
-6.817686e+00
-6.657791e+00
-6.517989e+00
-6.388574e+00
-6.262365e+00
-6.116503e+00
-5.943479e+00
-5.750637e+00
-5.528685e+00
-5.286688e+00
-5.040367e+00
-4.787282e+00
-4.517256e+00
-4.234292e+00
-3.905829e+00
-3.562601e+00
-3.250650e+00
-2.943402e+00
-2.621086e+00
-2.290241e+00
-1.930837e+00
-1.563939e+00
-1.182523e+00
-8.198441e-01
-4.292099e-01
-1.744341e-02
3.881840e-01
7.979877e-01
1.226168e+00
1.656454e+00
2.097827e+00
2.535067e+00
2.961623e+00
3.378262e+00
3.770450e+00
4.121438e+00
4.457914e+00
4.779846e+00
5.082381e+00
5.369228e+00
5.648822e+00
5.930242e+00
6.190988e+00
6.438074e+00
6.684900e+00
6.927836e+00
7.173721e+00
7.404895e+00
7.626563e+00
7.850075e+00
8.070445e+00
8.302992e+00
8.530947e+00
8.753371e+00
8.974696e+00
9.187316e+00
9.388374e+00
9.571906e+00
9.744532e+00
9.902537e+00
1.004061e+01
1.016804e+01
1.028396e+01
1.037742e+01
1.045260e+01
1.051683e+01
1.056965e+01
1.061226e+01
1.064178e+01
1.064953e+01
1.064026e+01
1.062391e+01
1.060412e+01
1.056615e+01
1.050619e+01
1.043017e+01
1.033389e+01
1.022346e+01
1.010491e+01
9.972618e+00
9.826853e+00
9.661198e+00
9.463262e+00
9.246561e+00
9.013569e+00
8.770050e+00
8.547960e+00
8.322641e+00
8.139539e+00
7.964277e+00
7.796675e+00
7.637802e+00
7.488904e+00
7.358546e+00
7.253773e+00
7.189908e+00
7.320359e+00
8.225436e+00
9.743758e+00
8.910597e+00
8.227334e+00
9.827999e+00
1.065883e+01
1.189556e+01
-6.508323e+00
-6.821240e+00
-6.779622e+00
-6.932501e+00
-6.986451e+00
-6.999334e+00
-7.008519e+00
-7.020612e+00
-7.034401e+00
-7.049064e+00
-7.062332e+00
-7.074369e+00
-7.087489e+00
-7.099940e+00
-7.110225e+00
-7.120957e+00
-7.128678e+00
-7.133414e+00
-7.139566e+00
-7.146437e+00
-7.154736e+00
-7.164258e+00
-7.172916e+00
-7.183043e+00
-7.194433e+00
-7.208649e+00
-7.226357e+00
-7.248562e+00
-7.274160e+00
-7.299813e+00
-7.329580e+00
-7.355313e+00
-7.382721e+00
-7.417436e+00
-7.460362e+00
-7.507124e+00
-7.551524e+00
-7.593062e+00
-7.636119e+00
-7.679836e+00
-7.719911e+00
-7.759623e+00
-7.798958e+00
-7.840422e+00
-7.883174e+00
-7.925008e+00
-7.962947e+00
-8.001268e+00
-8.036652e+00
-8.067235e+00
-8.097358e+00
-8.125991e+00
-8.147202e+00
-8.163096e+00
-8.180587e+00
-8.194394e+00
-8.203073e+00
-8.203575e+00
-8.195338e+00
-8.181259e+00
-8.167204e+00
-8.142888e+00
-8.107787e+00
-8.067575e+00
-8.022933e+00
-7.973593e+00
-7.918873e+00
-7.850947e+00
-7.772748e+00
-7.684454e+00
-7.587103e+00
-7.479206e+00
-7.364449e+00
-7.239760e+00
-7.110710e+00
-6.956822e+00
-6.789466e+00
-6.642546e+00
-6.521895e+00
-6.418703e+00
-6.308891e+00
-6.178628e+00
-6.023396e+00
-5.856132e+00
-5.666791e+00
-5.458347e+00
-5.236222e+00
-4.971003e+00
-4.688676e+00
-4.380017e+00
-4.064328e+00
-3.725310e+00
-3.393346e+00
-3.064176e+00
-2.747349e+00
-2.397754e+00
-2.032999e+00
-1.653930e+00
-1.289620e+00
-9.054454e-01
-5.064789e-01
-8.301977e-02
3.581091e-01
8.125359e-01
1.261121e+00
1.698006e+00
2.117128e+00
2.552268e+00
2.979004e+00
3.394621e+00
3.758779e+00
4.110461e+00
4.447898e+00
4.766011e+00
5.056651e+00
5.324292e+00
5.587902e+00
5.853399e+00
6.110330e+00
6.352900e+00
6.600115e+00
6.865866e+00
7.145940e+00
7.416165e+00
7.665753e+00
7.900321e+00
8.135275e+00
8.373883e+00
8.602837e+00
8.831683e+00
9.051798e+00
9.253788e+00
9.438166e+00
9.614402e+00
9.791888e+00
9.962466e+00
1.013051e+01
1.028914e+01
1.043629e+01
1.057281e+01
1.069414e+01
1.079695e+01
1.087866e+01
1.094507e+01
1.099363e+01
1.102018e+01
1.103303e+01
1.103407e+01
1.101880e+01
1.098076e+01
1.091575e+01
1.083103e+01
1.072788e+01
1.061435e+01
1.048935e+01
1.034719e+01
1.019017e+01
1.002659e+01
9.843244e+00
9.632567e+00
9.403579e+00
9.173201e+00
8.917374e+00
8.669571e+00
8.439640e+00
8.246741e+00
8.064594e+00
7.893146e+00
7.729953e+00
7.569825e+00
7.429312e+00
7.338609e+00
7.465883e+00
8.440440e+00
1.013835e+01
9.149796e+00
8.444131e+00
1.015034e+01
1.110902e+01
1.208920e+01
-6.605514e+00
-6.804607e+00
-6.804996e+00
-6.980640e+00
-7.043690e+00
-7.063964e+00
-7.079388e+00
-7.095002e+00
-7.110292e+00
-7.125201e+00
-7.139674e+00
-7.153892e+00
-7.165566e+00
-7.179529e+00
-7.193434e+00
-7.202894e+00
-7.209311e+00
-7.215080e+00
-7.222541e+00
-7.231106e+00
-7.241302e+00
-7.251355e+00
-7.262611e+00
-7.272825e+00
-7.286546e+00
-7.302980e+00
-7.324053e+00
-7.348065e+00
-7.369512e+00
-7.389400e+00
-7.410791e+00
-7.437479e+00
-7.467272e+00
-7.500369e+00
-7.534843e+00
-7.573748e+00
-7.608627e+00
-7.646627e+00
-7.687501e+00
-7.728236e+00
-7.767931e+00
-7.804385e+00
-7.836779e+00
-7.878492e+00
-7.918570e+00
-7.952180e+00
-7.981425e+00
-8.005779e+00
-8.027180e+00
-8.049126e+00
-8.066055e+00
-8.081081e+00
-8.097013e+00
-8.107932e+00
-8.115454e+00
-8.118415e+00
-8.117258e+00
-8.118359e+00
-8.119222e+00
-8.117186e+00
-8.106236e+00
-8.090588e+00
-8.064680e+00
-8.035663e+00
-7.999564e+00
-7.952827e+00
-7.893214e+00
-7.833197e+00
-7.763590e+00
-7.689767e+00
-7.615191e+00
-7.526327e+00
-7.420580e+00
-7.282218e+00
-7.124989e+00
-6.968682e+00
-6.811164e+00
-6.668946e+00
-6.560041e+00
-6.455565e+00
-6.343583e+00
-6.205769e+00
-6.053356e+00
-5.891044e+00
-5.720964e+00
-5.527870e+00
-5.300960e+00
-5.037832e+00
-4.740384e+00
-4.417362e+00
-4.076646e+00
-3.727044e+00
-3.373992e+00
-3.008332e+00
-2.633235e+00
-2.245806e+00
-1.876611e+00
-1.534860e+00
-1.148047e+00
-7.312898e-01
-3.170950e-01
1.077518e-01
5.494512e-01
9.993773e-01
1.392049e+00
1.774700e+00
2.148674e+00
2.538320e+00
2.910800e+00
3.281234e+00
3.644077e+00
3.997467e+00
4.333692e+00
4.661894e+00
4.965598e+00
5.258596e+00
5.534825e+00
5.801821e+00
6.054685e+00
6.300038e+00
6.558692e+00
6.837630e+00
7.118472e+00
7.392296e+00
7.647557e+00
7.875574e+00
8.080784e+00
8.284125e+00
8.494878e+00
8.708408e+00
8.909590e+00
9.104691e+00
9.291360e+00
9.470835e+00
9.639659e+00
9.805830e+00
9.971370e+00
1.012689e+01
1.028227e+01
1.042760e+01
1.056112e+01
1.067541e+01
1.077411e+01
1.085995e+01
1.093126e+01
1.097958e+01
1.099907e+01
1.100168e+01
1.098305e+01
1.093662e+01
1.086270e+01
1.077055e+01
1.066843e+01
1.055156e+01
1.042400e+01
1.027406e+01
1.010309e+01
9.909039e+00
9.700472e+00
9.481086e+00
9.251142e+00
9.012037e+00
8.784246e+00
8.564351e+00
8.334759e+00
8.122798e+00
7.940870e+00
7.771410e+00
7.596984e+00
7.432151e+00
7.280890e+00
7.180800e+00
7.304634e+00
8.287958e+00
9.995736e+00
9.053626e+00
8.449926e+00
1.027308e+01
1.136619e+01
1.214609e+01
-6.672913e+00
-6.783087e+00
-6.839017e+00
-7.038319e+00
-7.098420e+00
-7.112749e+00
-7.122514e+00
-7.136758e+00
-7.153046e+00
-7.170272e+00
-7.187011e+00
-7.203778e+00
-7.221623e+00
-7.235943e+00
-7.247991e+00
-7.260665e+00
-7.272121e+00
-7.282698e+00
-7.294286e+00
-7.310120e+00
-7.323409e+00
-7.338831e+00
-7.356579e+00
-7.375707e+00
-7.392661e+00
-7.408432e+00
-7.424320e+00
-7.440910e+00
-7.457953e+00
-7.476657e+00
-7.500454e+00
-7.528007e+00
-7.556847e+00
-7.581240e+00
-7.603856e+00
-7.625606e+00
-7.658287e+00
-7.696378e+00
-7.737994e+00
-7.777206e+00
-7.819074e+00
-7.856681e+00
-7.890106e+00
-7.922867e+00
-7.952239e+00
-7.976118e+00
-7.995874e+00
-8.011549e+00
-8.022990e+00
-8.028840e+00
-8.042104e+00
-8.054381e+00
-8.057957e+00
-8.053959e+00
-8.051228e+00
-8.059333e+00
-8.068726e+00
-8.075109e+00
-8.074265e+00
-8.077122e+00
-8.068559e+00
-8.056167e+00
-8.042189e+00
-8.017106e+00
-7.990692e+00
-7.950202e+00
-7.905954e+00
-7.865164e+00
-7.822294e+00
-7.770689e+00
-7.701359e+00
-7.601730e+00
-7.486753e+00
-7.349937e+00
-7.200457e+00
-7.039949e+00
-6.884467e+00
-6.741727e+00
-6.620290e+00
-6.500715e+00
-6.366293e+00
-6.212048e+00
-6.052435e+00
-5.875977e+00
-5.690263e+00
-5.497416e+00
-5.268246e+00
-4.989135e+00
-4.668452e+00
-4.323338e+00
-3.989166e+00
-3.632996e+00
-3.242280e+00
-2.826177e+00
-2.429839e+00
-2.045324e+00
-1.673940e+00
-1.294625e+00
-8.914467e-01
-4.989978e-01
-1.150756e-01
2.684726e-01
6.587510e-01
1.039852e+00
1.390147e+00
1.731235e+00
2.082570e+00
2.419318e+00
2.757064e+00
3.094283e+00
3.443799e+00
3.809922e+00
4.185324e+00
4.528835e+00
4.864493e+00
5.175341e+00
5.475203e+00
5.778412e+00
6.036731e+00
6.306135e+00
6.586968e+00
6.871596e+00
7.154193e+00
7.414989e+00
7.654297e+00
7.855606e+00
8.022191e+00
8.189945e+00
8.369022e+00
8.554647e+00
8.740793e+00
8.924614e+00
9.103473e+00
9.280193e+00
9.449470e+00
9.619628e+00
9.788225e+00
9.954031e+00
1.010403e+01
1.023945e+01
1.036654e+01
1.048599e+01
1.058900e+01
1.068142e+01
1.075837e+01
1.082104e+01
1.086068e+01
1.088675e+01
1.087744e+01
1.083288e+01
1.076164e+01
1.066335e+01
1.055322e+01
1.043801e+01
1.031182e+01
1.015373e+01
9.961192e+00
9.740095e+00
9.510056e+00
9.267913e+00
9.019096e+00
8.790396e+00
8.567046e+00
8.345310e+00
8.124653e+00
7.930096e+00
7.764896e+00
7.587299e+00
7.415662e+00
7.241413e+00
7.079539e+00
6.974100e+00
7.105515e+00
8.073075e+00
9.784702e+00
8.917642e+00
8.430636e+00
1.033857e+01
1.155092e+01
1.216931e+01
-6.743945e+00
-6.762755e+00
-6.856281e+00
-7.085206e+00
-7.150215e+00
-7.167051e+00
-7.175942e+00
-7.185204e+00
-7.198414e+00
-7.211310e+00
-7.223675e+00
-7.237974e+00
-7.253314e+00
-7.268269e+00
-7.282869e+00
-7.299018e+00
-7.314142e+00
-7.329029e+00
-7.345889e+00
-7.365784e+00
-7.383447e+00
-7.401024e+00
-7.415310e+00
-7.428573e+00
-7.444639e+00
-7.465352e+00
-7.484612e+00
-7.504782e+00
-7.527494e+00
-7.552700e+00
-7.578316e+00
-7.600383e+00
-7.621772e+00
-7.644497e+00
-7.661982e+00
-7.681576e+00
-7.705237e+00
-7.736476e+00
-7.778934e+00
-7.818624e+00
-7.858965e+00
-7.899536e+00
-7.932078e+00
-7.960846e+00
-7.984384e+00
-7.999941e+00
-8.009838e+00
-8.014243e+00
-8.017239e+00
-8.023120e+00
-8.029640e+00
-8.032977e+00
-8.034689e+00
-8.034266e+00
-8.032210e+00
-8.039300e+00
-8.052576e+00
-8.060908e+00
-8.065017e+00
-8.066657e+00
-8.076486e+00
-8.077232e+00
-8.068268e+00
-8.061135e+00
-8.043389e+00
-8.025431e+00
-8.006354e+00
-7.991890e+00
-7.966665e+00
-7.919025e+00
-7.843707e+00
-7.731361e+00
-7.606861e+00
-7.466815e+00
-7.302942e+00
-7.125736e+00
-6.966789e+00
-6.826401e+00
-6.689355e+00
-6.554805e+00
-6.408596e+00
-6.238056e+00
-6.053795e+00
-5.856259e+00
-5.630923e+00
-5.408874e+00
-5.148329e+00
-4.855598e+00
-4.536866e+00
-4.188396e+00
-3.838212e+00
-3.493695e+00
-3.125004e+00
-2.730577e+00
-2.335095e+00
-1.943021e+00
-1.574026e+00
-1.194467e+00
-8.065823e-01
-4.283541e-01
-7.246880e-02
2.672330e-01
6.141573e-01
9.789695e-01
1.318550e+00
1.636109e+00
1.953212e+00
2.276817e+00
2.596076e+00
2.922651e+00
3.252667e+00
3.594701e+00
3.970806e+00
4.358729e+00
4.736893e+00
5.093268e+00
5.409637e+00
5.714602e+00
6.000567e+00
6.284158e+00
6.561368e+00
6.840350e+00
7.109459e+00
7.351823e+00
7.583498e+00
7.795680e+00
7.973510e+00
8.138818e+00
8.305113e+00
8.472570e+00
8.639801e+00
8.805703e+00
8.969469e+00
9.135228e+00
9.302140e+00
9.464936e+00
9.624167e+00
9.774399e+00
9.918561e+00
1.005102e+01
1.016868e+01
1.027407e+01
1.037787e+01
1.047453e+01
1.055247e+01
1.061614e+01
1.067040e+01
1.070675e+01
1.070945e+01
1.068090e+01
1.062510e+01
1.054470e+01
1.044333e+01
1.032009e+01
1.017482e+01
1.000403e+01
9.805685e+00
9.574332e+00
9.342116e+00
9.104276e+00
8.859594e+00
8.617247e+00
8.369999e+00
8.145262e+00
7.934315e+00
7.741582e+00
7.576600e+00
7.409809e+00
7.241602e+00
7.066084e+00
6.906766e+00
6.803190e+00
6.925505e+00
7.856154e+00
9.548103e+00
8.816279e+00
8.439501e+00
1.042225e+01
1.169170e+01
1.220038e+01
-6.828662e+00
-6.743150e+00
-6.881440e+00
-7.135692e+00
-7.197857e+00
-7.209673e+00
-7.217382e+00
-7.226182e+00
-7.239545e+00
-7.256027e+00
-7.274328e+00
-7.292370e+00
-7.308689e+00
-7.322078e+00
-7.335576e+00
-7.349387e+00
-7.361519e+00
-7.375025e+00
-7.389882e+00
-7.406130e+00
-7.421084e+00
-7.436428e+00
-7.449424e+00
-7.461597e+00
-7.475887e+00
-7.499319e+00
-7.525585e+00
-7.551052e+00
-7.576346e+00
-7.600328e+00
-7.623204e+00
-7.643776e+00
-7.660417e+00
-7.673275e+00
-7.692100e+00
-7.719299e+00
-7.751200e+00
-7.785877e+00
-7.822366e+00
-7.861914e+00
-7.897499e+00
-7.927394e+00
-7.952211e+00
-7.971341e+00
-7.991376e+00
-8.005113e+00
-8.017011e+00
-8.027175e+00
-8.037574e+00
-8.046169e+00
-8.051946e+00
-8.058076e+00
-8.064887e+00
-8.068781e+00
-8.075975e+00
-8.081209e+00
-8.088257e+00
-8.096478e+00
-8.106023e+00
-8.116486e+00
-8.136709e+00
-8.157624e+00
-8.163508e+00
-8.159872e+00
-8.155086e+00
-8.147882e+00
-8.142238e+00
-8.127327e+00
-8.085363e+00
-8.018354e+00
-7.927832e+00
-7.830762e+00
-7.704676e+00
-7.551551e+00
-7.381855e+00
-7.212013e+00
-7.053616e+00
-6.899406e+00
-6.741662e+00
-6.583192e+00
-6.418260e+00
-6.237854e+00
-6.037738e+00
-5.810875e+00
-5.565840e+00
-5.315482e+00
-5.038317e+00
-4.740133e+00
-4.403290e+00
-4.059543e+00
-3.725574e+00
-3.391243e+00
-3.052981e+00
-2.674287e+00
-2.286792e+00
-1.937964e+00
-1.573720e+00
-1.181441e+00
-7.746852e-01
-3.979214e-01
-5.328044e-02
2.670020e-01
5.784573e-01
9.022544e-01
1.220504e+00
1.525924e+00
1.821082e+00
2.137696e+00
2.457497e+00
2.781297e+00
3.105448e+00
3.425209e+00
3.780539e+00
4.181153e+00
4.605759e+00
5.003767e+00
5.326522e+00
5.634429e+00
5.934235e+00
6.221228e+00
6.504009e+00
6.777555e+00
7.020213e+00
7.259471e+00
7.493759e+00
7.722876e+00
7.930479e+00
8.105804e+00
8.277687e+00
8.449717e+00
8.615994e+00
8.778022e+00
8.936455e+00
9.100052e+00
9.257321e+00
9.396116e+00
9.522554e+00
9.646964e+00
9.771335e+00
9.889436e+00
9.998365e+00
1.009439e+01
1.018555e+01
1.027321e+01
1.035688e+01
1.043203e+01
1.049987e+01
1.054039e+01
1.054238e+01
1.051382e+01