/*--------------------------------*- C++ -*----------------------------------*\
| =========                 |                                                 |
| \\      /  F ield         | OpenFOAM: The Open Source CFD Toolbox           |
|  \\    /   O peration     | Version:  v2406                                 |
|   \\  /    A nd           | Website:  www.openfoam.com                      |
|    \\/     M anipulation  |                                                 |
\*---------------------------------------------------------------------------*/
FoamFile
{
    version     2.0;
    format      ascii;
    class       volVectorField;
    location    "predicted";
    object      U;
}
// * * * * * * * * * * * * * * * * * * * * * * * * * * * * * * * * * * * * * //

dimensions      [0 1 -1 0 0 0 0];

internalField   nonuniform List<vector>
49181
(
(6.719235e+00 6.277490e-02 -2.702087e-01)
(7.596714e+00 -2.353025e-02 -3.221222e-02)
(7.866342e+00 6.777157e-02 -1.301036e-01)
(7.864717e+00 8.921092e-02 -1.509310e-01)
(7.809812e+00 9.689923e-02 -1.677651e-01)
(7.732686e+00 1.002858e-01 -1.738301e-01)
(7.651400e+00 1.035213e-01 -1.796599e-01)
(7.531489e+00 1.087332e-01 -1.874702e-01)
(7.345488e+00 1.182779e-01 -1.972644e-01)
(7.113365e+00 1.284045e-01 -2.054570e-01)
(6.938893e+00 1.381631e-01 -2.129343e-01)
(6.879220e+00 1.412021e-01 -2.160334e-01)
(6.913886e+00 1.395430e-01 -2.147418e-01)
(7.015593e+00 1.374409e-01 -2.102196e-01)
(7.133656e+00 1.320326e-01 -1.998826e-01)
(7.260517e+00 1.244088e-01 -1.934487e-01)
(7.165005e+00 8.290576e-02 -1.653359e-01)
(6.841046e+00 1.092657e-01 -2.539748e-01)
(7.687165e+00 -2.643946e-02 -2.125116e-02)
(9.648664e+00 6.581843e-02 -3.871389e-02)
(1.016046e+01 5.671813e-02 -3.586008e-02)
(1.032464e+01 6.412296e-02 -7.424596e-02)
(1.035872e+01 6.475602e-02 -8.187368e-02)
(1.025855e+01 6.327703e-02 -8.466613e-02)
(1.012046e+01 6.275887e-02 -8.484577e-02)
(9.921982e+00 6.381318e-02 -8.397436e-02)
(9.620190e+00 6.614941e-02 -8.265524e-02)
(9.232696e+00 7.206808e-02 -7.922232e-02)
(8.971293e+00 7.505238e-02 -7.538076e-02)
(8.843894e+00 7.626704e-02 -7.276074e-02)
(8.934514e+00 7.550037e-02 -7.365100e-02)
(9.261858e+00 7.438893e-02 -8.048565e-02)
(9.592738e+00 7.768526e-02 -8.443538e-02)
(9.801522e+00 7.822018e-02 -8.418333e-02)
(9.590897e+00 6.747386e-02 -8.047295e-02)
(8.863284e+00 4.526257e-02 -5.803046e-02)
(8.243892e+00 5.840981e-02 -1.024781e-01)
(1.040558e+01 5.246495e-02 -3.415628e-02)
(1.074993e+01 3.771037e-02 -4.378259e-02)
(1.126100e+01 4.077096e-02 -4.839341e-02)
(1.144034e+01 4.120981e-02 -4.879548e-02)
(1.149665e+01 3.877178e-02 -4.711239e-02)
(1.152257e+01 3.675085e-02 -4.958514e-02)
(1.152333e+01 3.532829e-02 -5.111971e-02)
(1.143068e+01 3.412764e-02 -5.515850e-02)
(1.128586e+01 3.124260e-02 -6.071031e-02)
(1.114531e+01 3.115808e-02 -6.375833e-02)
(1.109758e+01 2.834065e-02 -6.463468e-02)
(1.111577e+01 2.739477e-02 -6.446587e-02)
(1.132350e+01 3.598828e-02 -5.697022e-02)
(1.143681e+01 4.062201e-02 -5.137202e-02)
(1.149872e+01 4.207283e-02 -4.896966e-02)
(1.149728e+01 4.088518e-02 -4.820712e-02)
(1.147110e+01 3.566286e-02 -5.479125e-02)
(8.348098e+00 6.922313e-02 -1.135789e-01)
(1.092523e+01 5.525928e-02 -4.838376e-02)
(1.137793e+01 3.278002e-02 -5.148899e-02)
(1.175424e+01 3.701473e-02 -5.481118e-02)
(1.193763e+01 3.827751e-02 -5.282966e-02)
(1.199861e+01 3.596525e-02 -5.206312e-02)
(1.204724e+01 3.377424e-02 -4.996241e-02)
(1.208643e+01 3.248605e-02 -4.855099e-02)
(1.211530e+01 3.209824e-02 -5.015607e-02)
(1.210515e+01 3.316964e-02 -5.215769e-02)
(1.216811e+01 3.235172e-02 -5.296249e-02)
(1.209837e+01 2.851600e-02 -5.188601e-02)
(1.207560e+01 2.717609e-02 -5.119759e-02)
(1.210656e+01 3.224074e-02 -4.988758e-02)
(1.207659e+01 3.485454e-02 -5.175699e-02)
(1.208472e+01 3.732085e-02 -5.330268e-02)
(1.210131e+01 3.553507e-02 -5.387158e-02)
(1.222849e+01 3.291801e-02 -5.021624e-02)
(8.500265e+00 6.639038e-02 -1.136439e-01)
(1.125102e+01 5.172623e-02 -4.833496e-02)
(1.155700e+01 2.776894e-02 -4.935398e-02)
(1.192354e+01 3.158495e-02 -5.628505e-02)
(1.209654e+01 3.340058e-02 -5.663899e-02)
(1.217957e+01 3.245397e-02 -5.437494e-02)
(1.224566e+01 3.119633e-02 -5.385883e-02)
(1.230570e+01 2.852745e-02 -5.404592e-02)
(1.234662e+01 2.622611e-02 -5.284401e-02)
(1.237994e+01 2.423676e-02 -5.192345e-02)
(1.239840e+01 2.312163e-02 -4.964788e-02)
(1.240059e+01 2.147345e-02 -4.892365e-02)
(1.233880e+01 1.983318e-02 -4.941135e-02)
(1.234631e+01 2.638729e-02 -5.368903e-02)
(1.226690e+01 3.171408e-02 -5.456939e-02)
(1.223253e+01 3.241033e-02 -5.705147e-02)
(1.225042e+01 3.087219e-02 -5.701653e-02)
(1.244000e+01 3.000728e-02 -5.564919e-02)
(8.642822e+00 5.681722e-02 -1.035302e-01)
(1.141477e+01 4.499195e-02 -4.383468e-02)
(1.158050e+01 2.076588e-02 -3.890981e-02)
(1.192633e+01 2.263247e-02 -4.619813e-02)
(1.209113e+01 2.495755e-02 -5.050741e-02)
(1.218011e+01 2.482532e-02 -5.259605e-02)
(1.226001e+01 2.422363e-02 -5.464367e-02)
(1.232935e+01 2.399904e-02 -5.620959e-02)
(1.239305e+01 2.344117e-02 -5.637905e-02)
(1.244638e+01 2.295301e-02 -5.636333e-02)
(1.248937e+01 2.258956e-02 -5.691305e-02)
(1.249721e+01 2.108498e-02 -5.679353e-02)
(1.241463e+01 1.981806e-02 -5.630676e-02)
(1.238120e+01 2.311933e-02 -5.666743e-02)
(1.225812e+01 2.383098e-02 -5.279230e-02)
(1.220338e+01 2.344710e-02 -4.911458e-02)
(1.222016e+01 2.240757e-02 -4.981222e-02)
(1.244767e+01 2.431542e-02 -5.621806e-02)
(8.827732e+00 4.552408e-02 -9.225608e-02)
(1.153134e+01 3.642078e-02 -4.180571e-02)
(1.157992e+01 1.363717e-02 -2.759836e-02)
(1.190393e+01 1.602898e-02 -3.535660e-02)
(1.206301e+01 1.732956e-02 -4.066460e-02)
(1.215138e+01 1.694224e-02 -4.342259e-02)
(1.221959e+01 1.681832e-02 -4.602864e-02)
(1.228575e+01 1.683307e-02 -4.869448e-02)
(1.234551e+01 1.719484e-02 -5.069771e-02)
(1.240222e+01 1.778002e-02 -5.288007e-02)
(1.244594e+01 1.822917e-02 -5.500484e-02)
(1.245383e+01 1.768648e-02 -5.620183e-02)
(1.237247e+01 1.580889e-02 -5.512325e-02)
(1.232970e+01 1.659259e-02 -4.997561e-02)
(1.221127e+01 1.634393e-02 -4.374059e-02)
(1.216086e+01 1.648529e-02 -3.941791e-02)
(1.217287e+01 1.565635e-02 -4.039343e-02)
(1.238588e+01 1.721720e-02 -4.767180e-02)
(9.056677e+00 3.633566e-02 -8.116172e-02)
(1.161172e+01 2.821493e-02 -4.243439e-02)
(1.158544e+01 7.278854e-03 -1.793006e-02)
(1.189621e+01 9.073769e-03 -2.501333e-02)
(1.203037e+01 1.071195e-02 -3.091991e-02)
(1.211210e+01 1.124163e-02 -3.437028e-02)
(1.218028e+01 1.196782e-02 -3.737491e-02)
(1.223916e+01 1.271978e-02 -4.002731e-02)
(1.228763e+01 1.361799e-02 -4.292487e-02)
(1.233182e+01 1.445792e-02 -4.566208e-02)
(1.236907e+01 1.506195e-02 -4.794823e-02)
(1.237537e+01 1.480557e-02 -4.943945e-02)
(1.230551e+01 1.309981e-02 -4.853466e-02)
(1.227112e+01 1.290422e-02 -4.198423e-02)
(1.216778e+01 1.131708e-02 -3.510528e-02)
(1.212968e+01 1.048232e-02 -3.036766e-02)
(1.213300e+01 9.836880e-03 -3.161518e-02)
(1.231046e+01 1.312027e-02 -3.904927e-02)
(9.314162e+00 2.850800e-02 -7.723928e-02)
(1.164427e+01 2.027566e-02 -3.852319e-02)
(1.163923e+01 3.078643e-03 -9.908197e-03)
(1.191813e+01 5.457083e-03 -1.623990e-02)
(1.204848e+01 7.186019e-03 -2.094725e-02)
(1.209357e+01 7.503222e-03 -2.400380e-02)
(1.214819e+01 8.681064e-03 -2.721308e-02)
(1.219566e+01 9.984459e-03 -3.019729e-02)
(1.223488e+01 1.102358e-02 -3.269596e-02)
(1.226611e+01 1.204068e-02 -3.510253e-02)
(1.229059e+01 1.310307e-02 -3.768777e-02)
(1.229056e+01 1.322723e-02 -4.010348e-02)
(1.223470e+01 1.132743e-02 -3.907277e-02)
(1.222242e+01 1.033138e-02 -3.234662e-02)
(1.214184e+01 8.074852e-03 -2.487746e-02)
(1.211687e+01 7.809988e-03 -2.058640e-02)
(1.211034e+01 7.101351e-03 -2.165667e-02)
(1.225181e+01 1.000452e-02 -2.912060e-02)
(9.583216e+00 2.228031e-02 -7.734622e-02)
(1.168562e+01 1.306059e-02 -2.889384e-02)
(1.172806e+01 4.187342e-04 -4.491210e-03)
(1.197523e+01 2.977929e-03 -9.397678e-03)
(1.207220e+01 5.098774e-03 -1.247053e-02)
(1.209972e+01 5.561439e-03 -1.479357e-02)
(1.212378e+01 6.287138e-03 -1.720266e-02)
(1.215866e+01 7.949181e-03 -2.034638e-02)
(1.219165e+01 9.328856e-03 -2.316317e-02)
(1.221623e+01 1.034626e-02 -2.590780e-02)
(1.223420e+01 1.125253e-02 -2.846111e-02)
(1.223562e+01 1.165059e-02 -3.075928e-02)
(1.218446e+01 9.711835e-03 -2.993428e-02)
(1.217716e+01 8.552936e-03 -2.299126e-02)
(1.211741e+01 5.884674e-03 -1.553304e-02)
(1.213106e+01 5.597207e-03 -1.227979e-02)
(1.210148e+01 5.089963e-03 -1.313285e-02)
(1.218492e+01 7.807497e-03 -1.917605e-02)
(9.817957e+00 1.954585e-02 -7.812516e-02)
(1.173115e+01 5.776116e-03 -2.041828e-02)
(1.181271e+01 -7.915212e-04 -8.795382e-04)
(1.202941e+01 2.017594e-03 -4.889380e-03)
(1.210879e+01 3.967171e-03 -7.046537e-03)
(1.212005e+01 4.435377e-03 -8.936604e-03)
(1.212805e+01 4.810527e-03 -1.112311e-02)
(1.213213e+01 5.244286e-03 -1.329748e-02)
(1.215557e+01 6.501442e-03 -1.545528e-02)
(1.217878e+01 7.716425e-03 -1.800844e-02)
(1.219588e+01 8.786641e-03 -2.044657e-02)
(1.219781e+01 9.152540e-03 -2.246593e-02)
(1.214849e+01 7.141796e-03 -2.155893e-02)
(1.214344e+01 5.875236e-03 -1.509707e-02)
(1.213677e+01 4.977965e-03 -9.927711e-03)
(1.216256e+01 5.111380e-03 -7.064548e-03)
(1.213353e+01 4.643022e-03 -7.797808e-03)
(1.216241e+01 6.023629e-03 -1.250044e-02)
(1.001071e+01 1.752234e-02 -7.815532e-02)
(1.176588e+01 2.993213e-03 -1.681681e-02)
(1.186481e+01 -2.751078e-03 1.523697e-03)
(1.205612e+01 1.205160e-03 -7.976636e-04)
(1.211894e+01 3.636904e-03 -2.950336e-03)
(1.212572e+01 4.003126e-03 -4.714733e-03)
(1.212985e+01 4.191065e-03 -6.924448e-03)
(1.213738e+01 4.595495e-03 -9.177829e-03)
(1.214659e+01 5.024747e-03 -1.126429e-02)
(1.216068e+01 6.043555e-03 -1.345909e-02)
(1.217290e+01 6.951992e-03 -1.576680e-02)
(1.217012e+01 7.045945e-03 -1.732735e-02)
(1.212133e+01 5.111905e-03 -1.618497e-02)
(1.214420e+01 4.809155e-03 -1.109081e-02)
(1.214392e+01 4.518587e-03 -5.862460e-03)
(1.217352e+01 4.835299e-03 -2.968084e-03)
(1.214265e+01 4.459674e-03 -3.553387e-03)
(1.217402e+01 5.625384e-03 -8.534980e-03)
(1.016742e+01 1.606857e-02 -7.692973e-02)
(1.177785e+01 1.647475e-03 -1.326959e-02)
(1.188824e+01 -4.129416e-03 3.488986e-03)
(1.206758e+01 5.047405e-04 1.616305e-03)
(1.211856e+01 3.078219e-03 2.459620e-04)
(1.212305e+01 3.620096e-03 -1.268606e-03)
(1.212949e+01 3.635837e-03 -3.538589e-03)
(1.213654e+01 3.857342e-03 -5.863393e-03)
(1.214324e+01 4.341237e-03 -7.777153e-03)
(1.214963e+01 4.717066e-03 -9.693281e-03)
(1.215743e+01 5.362249e-03 -1.160073e-02)
(1.215427e+01 5.460895e-03 -1.312629e-02)
(1.210977e+01 3.545950e-03 -1.195159e-02)
(1.214369e+01 4.146131e-03 -7.584381e-03)
(1.214310e+01 4.171919e-03 -2.380627e-03)
(1.218248e+01 4.618013e-03 2.874584e-05)
(1.215312e+01 4.238559e-03 -5.954789e-04)
(1.218173e+01 4.985132e-03 -5.137669e-03)
(1.028542e+01 1.455492e-02 -7.466995e-02)
(1.179542e+01 1.239645e-04 -9.198013e-03)
(1.188627e+01 -4.174206e-03 6.843839e-03)
(1.207788e+01 4.787827e-04 3.161184e-03)
(1.212039e+01 2.576025e-03 2.650614e-03)
(1.212658e+01 3.242251e-03 9.877576e-04)
(1.213053e+01 3.507302e-03 -9.279938e-04)
(1.213548e+01 3.589309e-03 -3.053285e-03)
(1.214326e+01 3.661235e-03 -4.800670e-03)
(1.214226e+01 4.032540e-03 -6.563714e-03)
(1.214658e+01 4.375176e-03 -8.329090e-03)
(1.213893e+01 4.119970e-03 -9.574845e-03)
(1.209814e+01 2.558183e-03 -8.711757e-03)
(1.214045e+01 3.427582e-03 -4.633285e-03)
(1.214728e+01 3.976965e-03 1.641174e-04)
(1.218695e+01 4.375379e-03 2.770955e-03)
(1.215807e+01 4.171546e-03 2.313482e-03)
(1.218919e+01 5.176681e-03 -2.323749e-03)
(1.035561e+01 1.456567e-02 -7.254601e-02)
(1.179988e+01 -7.235939e-04 -5.843336e-03)
(1.188319e+01 -3.618698e-03 9.901266e-03)
(1.208118e+01 1.342539e-03 4.939646e-03)
(1.212027e+01 2.723977e-03 4.293523e-03)
(1.212835e+01 2.848174e-03 3.153533e-03)
(1.212705e+01 3.314245e-03 1.313971e-03)
(1.213307e+01 3.559133e-03 -5.885634e-04)
(1.214089e+01 3.686126e-03 -2.329569e-03)
(1.214696e+01 3.817728e-03 -4.037695e-03)
(1.214184e+01 4.116615e-03 -5.672592e-03)
(1.212908e+01 3.606507e-03 -6.863778e-03)
(1.208604e+01 2.036842e-03 -5.903043e-03)
(1.213660e+01 3.503659e-03 -2.017865e-03)
(1.215160e+01 3.663760e-03 2.616459e-03)
(1.218971e+01 4.448915e-03 4.813278e-03)
(1.215944e+01 4.079322e-03 4.573808e-03)
(1.218713e+01 5.421823e-03 5.604257e-04)
(1.041218e+01 1.528666e-02 -7.039048e-02)
(1.181202e+01 -1.586893e-03 -2.601726e-03)
(1.188554e+01 -2.767505e-03 1.275830e-02)
(1.207763e+01 2.600644e-03 6.921508e-03)
(1.212599e+01 3.433478e-03 5.380635e-03)
(1.213018e+01 2.722452e-03 4.726277e-03)
(1.212672e+01 2.962951e-03 3.575782e-03)
(1.212290e+01 3.463756e-03 1.875655e-03)
(1.212784e+01 3.731298e-03 3.365937e-04)
(1.213605e+01 3.600424e-03 -1.542890e-03)
(1.213763e+01 3.574687e-03 -3.188549e-03)
(1.212100e+01 3.128237e-03 -4.292766e-03)
(1.207898e+01 1.625838e-03 -3.352407e-03)
(1.212377e+01 3.540122e-03 6.973937e-04)
(1.215387e+01 3.379834e-03 4.499179e-03)
(1.219799e+01 5.119903e-03 5.716321e-03)
(1.216313e+01 4.606983e-03 5.883993e-03)
(1.218435e+01 5.107635e-03 3.584737e-03)
(1.047370e+01 1.699334e-02 -6.990495e-02)
(1.182445e+01 -1.955622e-03 2.900541e-04)
(1.188493e+01 -1.685946e-03 1.506444e-02)
(1.206843e+01 3.342253e-03 8.820457e-03)
(1.213015e+01 3.868491e-03 6.020665e-03)
(1.212985e+01 2.976167e-03 5.306520e-03)
(1.212196e+01 2.387187e-03 4.772567e-03)
(1.211700e+01 2.517586e-03 3.668864e-03)
(1.211426e+01 2.923540e-03 2.232093e-03)
(1.211260e+01 3.373887e-03 1.106979e-03)
(1.211318e+01 3.266921e-03 -3.605635e-04)
(1.209815e+01 2.494830e-03 -1.487981e-03)
(1.205709e+01 1.069457e-03 -7.991438e-04)
(1.211548e+01 2.514095e-03 2.840922e-03)
(1.214918e+01 3.621570e-03 5.569765e-03)
(1.220172e+01 5.962717e-03 6.855143e-03)
(1.216574e+01 5.361723e-03 6.885777e-03)
(1.217399e+01 4.795753e-03 6.149949e-03)
(1.053042e+01 1.825113e-02 -6.870439e-02)
(1.183103e+01 -2.536503e-03 2.936950e-03)
(1.187736e+01 1.523667e-05 1.767275e-02)
(1.206058e+01 4.718388e-03 1.053450e-02)
(1.212635e+01 4.795448e-03 7.704487e-03)
(1.212185e+01 3.625416e-03 6.638585e-03)
(1.210882e+01 2.470092e-03 5.698225e-03)
(1.209657e+01 1.974150e-03 5.394009e-03)
(1.209069e+01 1.927250e-03 4.505709e-03)
(1.208365e+01 2.124780e-03 3.321827e-03)
(1.207824e+01 2.204754e-03 2.164121e-03)
(1.206140e+01 1.587190e-03 1.223141e-03)
(1.201884e+01 2.194592e-04 1.669962e-03)
(1.209231e+01 1.718944e-03 4.946440e-03)
(1.214041e+01 4.470704e-03 7.067608e-03)
(1.219022e+01 7.379143e-03 8.605815e-03)
(1.215136e+01 6.644769e-03 8.777509e-03)
(1.215593e+01 4.818762e-03 8.259955e-03)
(1.051858e+01 1.952882e-02 -7.207803e-02)
(1.186695e+01 -1.413542e-03 4.906516e-03)
(1.188114e+01 1.854358e-03 1.960359e-02)
(1.206515e+01 6.960786e-03 1.263265e-02)
(1.212575e+01 6.687552e-03 9.307650e-03)
(1.211930e+01 5.332936e-03 8.106049e-03)
(1.210490e+01 4.007989e-03 7.393636e-03)
(1.209288e+01 2.852682e-03 6.982460e-03)
(1.208021e+01 1.779331e-03 6.430895e-03)
(1.206845e+01 1.138503e-03 5.699600e-03)
(1.205426e+01 8.942765e-04 4.906063e-03)
(1.203123e+01 3.193424e-04 4.038464e-03)
(1.199251e+01 -7.752214e-04 4.309372e-03)
(1.208028e+01 2.133573e-03 7.023919e-03)
(1.212982e+01 5.778284e-03 8.891873e-03)
(1.217703e+01 8.594617e-03 1.041006e-02)
(1.214498e+01 7.903738e-03 1.061164e-02)
(1.214531e+01 5.780690e-03 9.913195e-03)
(1.019367e+01 2.190294e-02 -3.795397e-02)
(1.183435e+01 1.156006e-03 2.292416e-03)
(1.194158e+01 4.781638e-03 1.949072e-02)
(1.211550e+01 8.792147e-03 1.431506e-02)
(1.217382e+01 8.319536e-03 1.130907e-02)
(1.216622e+01 6.859683e-03 1.009506e-02)
(1.214980e+01 5.475602e-03 9.364827e-03)
(1.213766e+01 4.314026e-03 8.918416e-03)
(1.212358e+01 3.340169e-03 8.447089e-03)
(1.211173e+01 2.456029e-03 7.656298e-03)
(1.209772e+01 1.910442e-03 7.028382e-03)
(1.207015e+01 1.246536e-03 6.238026e-03)
(1.203086e+01 1.689670e-04 6.292360e-03)
(1.211699e+01 3.473923e-03 9.141367e-03)
(1.216680e+01 7.143541e-03 1.077743e-02)
(1.221215e+01 9.939440e-03 1.201491e-02)
(1.219137e+01 9.133241e-03 1.193437e-02)
(1.219267e+01 7.281395e-03 1.252439e-02)
(9.331379e+00 -1.980850e-02 -8.465958e-02)
(1.168014e+01 -5.073739e-03 2.016544e-03)
(1.193062e+01 4.236424e-03 1.209459e-02)
(1.215789e+01 8.066092e-03 1.141840e-02)
(1.220660e+01 7.356235e-03 9.349121e-03)
(1.220096e+01 6.116447e-03 8.277638e-03)
(1.218852e+01 4.956362e-03 7.680626e-03)
(1.217708e+01 4.100196e-03 7.246074e-03)
(1.216864e+01 3.447440e-03 6.868710e-03)
(1.216051e+01 3.285119e-03 5.766399e-03)
(1.215103e+01 3.315313e-03 4.476739e-03)
(1.212453e+01 2.783805e-03 3.478551e-03)
(1.207484e+01 1.383967e-03 4.038137e-03)
(1.215814e+01 3.556320e-03 7.486396e-03)
(1.220600e+01 6.740941e-03 9.674981e-03)
(1.224693e+01 8.971480e-03 1.042980e-02)
(1.222912e+01 8.600666e-03 1.104656e-02)
(1.217593e+01 4.689685e-03 7.758491e-03)
(7.234554e+00 -1.274331e-02 -1.050915e-01)
(1.075456e+01 -2.447714e-02 -2.388761e-02)
(1.163159e+01 -4.906861e-03 5.698145e-03)
(1.198005e+01 4.058909e-04 4.253773e-03)
(1.203827e+01 8.266541e-04 4.195366e-03)
(1.203948e+01 2.121780e-05 3.470514e-03)
(1.203229e+01 7.506492e-05 2.367870e-03)
(1.202670e+01 4.043490e-04 8.480528e-04)
(1.202767e+01 7.972398e-04 -5.417729e-04)
(1.203265e+01 9.102374e-04 -2.118579e-03)
(1.203328e+01 9.887038e-04 -3.551116e-03)
(1.201255e+01 3.944031e-04 -4.566956e-03)
(1.196661e+01 -9.302648e-04 -3.249190e-03)
(1.203735e+01 7.924617e-04 8.932754e-04)
(1.207010e+01 1.223950e-03 4.134814e-03)
(1.209819e+01 2.604778e-03 5.110191e-03)
(1.203931e+01 3.909127e-04 2.315971e-03)
(1.195596e+01 -1.341899e-04 -2.137549e-03)
(7.169854e+00 -2.565832e-02 -1.392925e-01)
(1.091425e+01 -1.851310e-02 -3.508531e-02)
(1.164258e+01 -8.821417e-03 -3.988991e-03)
(1.203146e+01 3.942506e-04 1.739154e-03)
(1.208286e+01 1.167155e-03 2.846239e-03)
(1.208335e+01 1.489390e-03 1.627274e-03)
(1.208270e+01 1.910188e-03 -3.092976e-04)
(1.208971e+01 2.094467e-03 -2.095586e-03)
(1.209630e+01 2.295267e-03 -3.624771e-03)
(1.209964e+01 2.495847e-03 -5.359510e-03)
(1.209634e+01 2.627415e-03 -7.080575e-03)
(1.207843e+01 2.026320e-03 -8.117218e-03)
(1.203282e+01 4.879832e-04 -6.568177e-03)
(1.210781e+01 2.584581e-03 -1.561251e-03)
(1.213199e+01 2.763032e-03 2.655189e-03)
(1.216409e+01 3.204213e-03 3.444530e-03)
(1.211385e+01 2.194351e-03 -5.485090e-04)
(1.198396e+01 6.813787e-04 -8.158075e-03)
(6.997664e+00 1.587833e-03 -1.591392e-01)
(1.101156e+01 -1.310411e-02 -3.694710e-02)
(1.169528e+01 -8.736546e-03 -4.847360e-03)
(1.207093e+01 1.898174e-03 2.503414e-03)
(1.212229e+01 2.461333e-03 3.611002e-03)
(1.212603e+01 2.798529e-03 2.238565e-03)
(1.212553e+01 3.248876e-03 3.643378e-04)
(1.213542e+01 3.333917e-03 -1.493006e-03)
(1.214266e+01 3.541426e-03 -3.155086e-03)
(1.214539e+01 3.814898e-03 -4.871076e-03)
(1.214234e+01 4.029643e-03 -6.549492e-03)
(1.212405e+01 3.298776e-03 -7.569313e-03)
(1.207657e+01 1.713844e-03 -5.996879e-03)
(1.215559e+01 3.739634e-03 -9.622168e-04)
(1.217604e+01 4.027592e-03 3.280370e-03)
(1.220863e+01 4.478753e-03 4.015215e-03)
(1.216770e+01 3.571451e-03 -7.633874e-05)
(1.205087e+01 2.182930e-03 -7.644669e-03)
(7.018585e+00 8.937168e-03 -1.611316e-01)
(1.107490e+01 -1.307038e-02 -3.769599e-02)
(1.172085e+01 -7.987245e-03 -3.695257e-03)
(1.207956e+01 2.680127e-03 3.537819e-03)
(1.213097e+01 3.093926e-03 4.485062e-03)
(1.213432e+01 2.947194e-03 3.485884e-03)
(1.213045e+01 3.372853e-03 1.630255e-03)
(1.213665e+01 3.709491e-03 -2.299282e-06)
(1.214574e+01 3.740634e-03 -1.778704e-03)
(1.215066e+01 3.932013e-03 -3.501809e-03)
(1.214624e+01 4.158127e-03 -5.153025e-03)
(1.212420e+01 3.441814e-03 -6.180691e-03)
(1.208169e+01 1.847174e-03 -4.580044e-03)
(1.215573e+01 4.142301e-03 5.008160e-04)
(1.218428e+01 4.061886e-03 4.327570e-03)
(1.221700e+01 4.846584e-03 5.036369e-03)
(1.217648e+01 3.858477e-03 1.509566e-03)
(1.207208e+01 2.292844e-03 -6.011269e-03)
(7.056327e+00 8.003062e-03 -1.591628e-01)
(1.111277e+01 -1.329995e-02 -3.740484e-02)
(1.172768e+01 -7.293332e-03 -2.201937e-03)
(1.207151e+01 3.119782e-03 4.408514e-03)
(1.212804e+01 3.399794e-03 5.155451e-03)
(1.212991e+01 2.602830e-03 4.479172e-03)
(1.212491e+01 3.021017e-03 3.083602e-03)
(1.212444e+01 3.491510e-03 1.537283e-03)
(1.213205e+01 3.604847e-03 -1.117060e-04)
(1.213953e+01 3.573975e-03 -1.970015e-03)
(1.213972e+01 3.651306e-03 -3.535443e-03)
(1.211659e+01 3.020628e-03 -4.501944e-03)
(1.207136e+01 1.428359e-03 -3.083447e-03)
(1.214709e+01 3.838094e-03 1.751477e-03)
(1.218098e+01 4.001211e-03 5.145050e-03)
(1.221362e+01 5.316772e-03 5.737735e-03)
(1.217255e+01 3.625095e-03 3.219198e-03)
(1.207717e+01 2.280086e-03 -4.213104e-03)
(7.125717e+00 8.823481e-04 -1.524745e-01)
(1.101019e+01 -1.688883e-02 -3.380737e-02)
(1.166416e+01 -7.227988e-03 -4.773656e-04)
(1.199772e+01 1.976217e-03 7.090720e-03)
(1.207343e+01 2.154923e-03 6.466598e-03)
(1.207811e+01 1.295012e-03 5.683809e-03)
(1.207828e+01 9.028669e-04 4.714279e-03)
(1.208086e+01 1.110631e-03 3.559310e-03)
(1.208316e+01 1.502200e-03 1.859416e-03)
(1.209279e+01 1.819759e-03 1.170902e-04)
(1.209779e+01 1.997736e-03 -1.434725e-03)
(1.207797e+01 1.366345e-03 -2.432928e-03)
(1.203340e+01 -9.857424e-05 -1.282299e-03)
(1.211921e+01 2.015865e-03 3.583729e-03)
(1.215188e+01 3.383342e-03 6.480605e-03)
(1.217720e+01 4.774573e-03 6.750261e-03)
(1.214387e+01 2.465958e-03 4.618031e-03)
(1.203852e+01 9.195565e-04 -2.110109e-03)
(7.116088e+00 -3.304684e-02 -1.210953e-01)
(1.082306e+01 -2.147435e-02 -2.491714e-02)
(1.141767e+01 -9.530241e-03 5.992237e-03)
(1.180530e+01 -2.231999e-03 1.120727e-02)
(1.187700e+01 -1.826070e-03 1.322263e-02)
(1.189043e+01 -1.914245e-03 1.255681e-02)
(1.189489e+01 -2.159658e-03 1.132824e-02)
(1.190269e+01 -2.402741e-03 9.836954e-03)
(1.192048e+01 -2.301282e-03 7.711818e-03)
(1.194236e+01 -1.527226e-03 4.932446e-03)
(1.196500e+01 -9.521307e-04 1.382010e-03)
(1.196736e+01 -7.350987e-04 -1.369762e-03)
(1.191010e+01 -2.514663e-03 6.824774e-04)
(1.199686e+01 5.006910e-04 7.687449e-03)
(1.203940e+01 2.144790e-03 1.109495e-02)
(1.210387e+01 4.191438e-03 1.175725e-02)
(1.202620e+01 8.744015e-04 6.934236e-03)
(1.192843e+01 -1.700204e-03 -8.468413e-04)
(6.732592e+00 -1.048218e-01 -8.298937e-02)
(1.038413e+01 -1.021289e-02 -3.194365e-02)
(1.123042e+01 -1.013213e-02 -8.472239e-04)
(1.166721e+01 -1.651415e-03 -2.964633e-04)
(1.180654e+01 -1.491822e-03 -1.284667e-03)
(1.182022e+01 -1.121178e-03 -2.593562e-03)
(1.183163e+01 -8.324234e-04 -4.332399e-03)
(1.186044e+01 -4.165908e-04 -7.624725e-03)
(1.192289e+01 2.088791e-03 -1.364497e-02)
(1.193831e+01 6.821577e-03 -2.452217e-02)
(1.194658e+01 1.006237e-02 -2.783374e-02)
(1.191869e+01 1.134623e-02 -2.829732e-02)
(1.191621e+01 1.143296e-02 -2.782131e-02)
(1.196750e+01 1.282304e-02 -2.961196e-02)
(1.198454e+01 1.392040e-02 -2.513546e-02)
(1.201636e+01 1.569930e-02 -2.582325e-02)
(1.194966e+01 1.535597e-02 -2.842212e-02)
(1.181527e+01 1.408033e-02 -3.251437e-02)
(5.526771e+00 4.321587e-02 -2.715406e-01)
(7.202620e+00 -9.021452e-02 -2.296080e-02)
(9.299607e+00 1.164266e-02 -4.639608e-02)
(1.002774e+01 1.131296e-02 -6.875224e-02)
(9.908521e+00 1.493717e-02 -6.810765e-02)
(9.761900e+00 1.620192e-02 -6.863503e-02)
(9.602345e+00 1.764244e-02 -6.818486e-02)
(9.410596e+00 2.159393e-02 -6.606951e-02)
(9.109542e+00 2.235910e-02 -7.051700e-02)
(8.675849e+00 1.896214e-02 -8.179154e-02)
(8.381967e+00 2.290251e-02 -9.810112e-02)
(8.247055e+00 2.884412e-02 -1.078361e-01)
(8.249628e+00 2.997385e-02 -1.092278e-01)
(8.286356e+00 2.862378e-02 -1.049576e-01)
(8.332066e+00 2.520969e-02 -9.787679e-02)
(8.269621e+00 2.454453e-02 -9.604184e-02)
(8.232795e+00 2.786196e-02 -1.033871e-01)
(8.075657e+00 2.713687e-02 -1.083731e-01)
(-1.048926e+00 3.978925e-01 -3.451659e-01)
(-1.808876e+00 3.041322e-01 -6.326441e-04)
(-1.145835e+00 3.012239e-01 5.305358e-02)
(-1.687330e+00 3.245664e-01 5.983176e-02)
(-1.716869e+00 3.239329e-01 5.646892e-02)
(-1.711447e+00 3.227969e-01 5.616440e-02)
(-1.709551e+00 3.217468e-01 5.601910e-02)
(-1.710728e+00 3.207249e-01 5.601567e-02)
(-1.714709e+00 3.197948e-01 5.620668e-02)
(-1.719502e+00 3.188599e-01 5.638359e-02)
(-1.727287e+00 3.181471e-01 5.663873e-02)
(-1.745480e+00 3.180255e-01 5.696359e-02)
(-1.764154e+00 3.180254e-01 5.723032e-02)
(-1.786363e+00 3.180283e-01 5.777591e-02)
(-1.810713e+00 3.181691e-01 5.889221e-02)
(-1.834318e+00 3.183209e-01 6.001581e-02)
(-1.858125e+00 3.186212e-01 6.099239e-02)
(-1.882825e+00 3.188683e-01 6.194466e-02)
(-1.909214e+00 3.192473e-01 6.292795e-02)
(-1.937471e+00 3.197325e-01 6.389182e-02)
(-1.965090e+00 3.202439e-01 6.500777e-02)
(-1.991611e+00 3.207573e-01 6.620146e-02)
(-2.016777e+00 3.211844e-01 6.753405e-02)
(-2.040238e+00 3.216074e-01 6.860835e-02)
(-2.062808e+00 3.219944e-01 6.965935e-02)
(-2.089930e+00 3.224814e-01 7.085732e-02)
(-2.116919e+00 3.232757e-01 7.226489e-02)
(-2.148755e+00 3.245056e-01 7.369167e-02)
(-2.180262e+00 3.257757e-01 7.468072e-02)
(-2.214009e+00 3.272143e-01 7.574808e-02)
(-2.249159e+00 3.289212e-01 7.702225e-02)
(-2.285204e+00 3.307815e-01 7.812655e-02)
(-2.321375e+00 3.326244e-01 7.893929e-02)
(-2.359509e+00 3.340544e-01 8.001959e-02)
(-2.397859e+00 3.352711e-01 8.126841e-02)
(-2.436870e+00 3.364818e-01 8.252588e-02)
(-2.478500e+00 3.378311e-01 8.378906e-02)
(-2.524404e+00 3.393302e-01 8.499429e-02)
(-2.571144e+00 3.408229e-01 8.617596e-02)
(-2.619663e+00 3.424702e-01 8.681799e-02)
(-2.674027e+00 3.445620e-01 8.745088e-02)
(-2.732272e+00 3.468578e-01 8.781017e-02)
(-2.791004e+00 3.493657e-01 8.794607e-02)
(-2.851401e+00 3.519410e-01 8.849565e-02)
(-2.911992e+00 3.543337e-01 8.898885e-02)
(-2.974544e+00 3.566246e-01 8.949593e-02)
(-3.044731e+00 3.587193e-01 8.952598e-02)
(-3.118954e+00 3.606038e-01 8.920813e-02)
(-3.197261e+00 3.622710e-01 8.911017e-02)
(-3.274485e+00 3.637899e-01 8.866620e-02)
(-3.350649e+00 3.651724e-01 8.811368e-02)
(-3.420388e+00 3.660470e-01 8.748521e-02)
(-3.489317e+00 3.664904e-01 8.660214e-02)
(-3.554537e+00 3.668601e-01 8.533030e-02)
(-3.618164e+00 3.666443e-01 8.290498e-02)
(-3.683479e+00 3.661333e-01 7.991127e-02)
(-3.748869e+00 3.655015e-01 7.732106e-02)
(-3.812533e+00 3.651256e-01 7.497323e-02)
(-3.884292e+00 3.647687e-01 7.209064e-02)
(-3.952815e+00 3.639977e-01 6.907105e-02)
(-4.007154e+00 3.629543e-01 6.630650e-02)
(-4.060150e+00 3.614053e-01 6.351743e-02)
(-4.115981e+00 3.593185e-01 6.047784e-02)
(-4.167276e+00 3.571474e-01 5.724112e-02)
(-4.211406e+00 3.546786e-01 5.322022e-02)
(-4.243785e+00 3.517737e-01 4.946372e-02)
(-4.267112e+00 3.483210e-01 4.532851e-02)
(-4.281944e+00 3.443931e-01 4.034483e-02)
(-4.284797e+00 3.401272e-01 3.442080e-02)
(-4.282993e+00 3.353555e-01 2.753097e-02)
(-4.274028e+00 3.303528e-01 2.018804e-02)
(-4.259724e+00 3.254311e-01 1.309133e-02)
(-4.246146e+00 3.206063e-01 5.699243e-03)
(-4.231161e+00 3.159353e-01 -2.550761e-03)
(-4.212848e+00 3.113138e-01 -1.091389e-02)
(-4.199723e+00 3.076206e-01 -1.809999e-02)
(-4.198863e+00 3.048139e-01 -2.634401e-02)
(-4.195220e+00 3.017289e-01 -3.396957e-02)
(-4.177902e+00 2.980550e-01 -3.977037e-02)
(-4.156468e+00 2.935191e-01 -4.450146e-02)
(-4.123993e+00 2.882431e-01 -4.924333e-02)
(-4.076276e+00 2.822015e-01 -5.395468e-02)
(-4.031537e+00 2.752169e-01 -5.817091e-02)
(-3.985383e+00 2.676965e-01 -6.379850e-02)
(-3.934347e+00 2.595296e-01 -6.855628e-02)
(-3.877586e+00 2.508680e-01 -7.490639e-02)
(-3.830486e+00 2.423716e-01 -8.203751e-02)
(-3.793437e+00 2.328222e-01 -9.000187e-02)
(-3.769181e+00 2.230772e-01 -9.623659e-02)
(-3.726972e+00 2.125854e-01 -1.010271e-01)
(-3.675907e+00 2.019627e-01 -1.056851e-01)
(-3.606713e+00 1.916417e-01 -1.126498e-01)
(-3.511112e+00 1.835244e-01 -1.222285e-01)
(-3.408020e+00 1.772162e-01 -1.333790e-01)
(-3.306188e+00 1.708255e-01 -1.413364e-01)
(-3.188418e+00 1.629393e-01 -1.455843e-01)
(-3.046239e+00 1.546306e-01 -1.505265e-01)
(-2.871554e+00 1.480817e-01 -1.579274e-01)
(-2.715400e+00 1.431276e-01 -1.658057e-01)
(-2.584413e+00 1.398462e-01 -1.723080e-01)
(-2.465378e+00 1.368127e-01 -1.773560e-01)
(-2.356865e+00 1.347064e-01 -1.825165e-01)
(-2.253943e+00 1.330821e-01 -1.876768e-01)
(-2.173194e+00 1.321703e-01 -1.928968e-01)
(-2.100413e+00 1.321033e-01 -1.947976e-01)
(-2.020789e+00 1.320239e-01 -1.965034e-01)
(-1.953223e+00 1.318081e-01 -1.966807e-01)
(-1.882046e+00 1.322830e-01 -1.976399e-01)
(-1.809845e+00 1.329380e-01 -1.984330e-01)
(-1.738815e+00 1.335322e-01 -1.992608e-01)
(-1.669904e+00 1.341848e-01 -2.001887e-01)
(-1.580718e+00 1.346064e-01 -2.015060e-01)
(-1.481564e+00 1.348524e-01 -1.999163e-01)
(-1.381585e+00 1.348388e-01 -1.972696e-01)
(-1.293570e+00 1.344558e-01 -1.939247e-01)
(-1.195692e+00 1.343576e-01 -1.906740e-01)
(-1.084816e+00 1.341597e-01 -1.870994e-01)
(-9.767539e-01 1.338544e-01 -1.840462e-01)
(-8.965322e-01 1.348410e-01 -1.839829e-01)
(-8.400616e-01 1.361291e-01 -1.854059e-01)
(-7.874890e-01 1.374056e-01 -1.858758e-01)
(-7.356205e-01 1.397989e-01 -1.874630e-01)
(-6.858838e-01 1.427133e-01 -1.894490e-01)
(-6.422064e-01 1.463874e-01 -1.909694e-01)
(-5.966180e-01 1.502371e-01 -1.912740e-01)
(-5.500308e-01 1.541035e-01 -1.917337e-01)
(-5.090201e-01 1.582674e-01 -1.919766e-01)
(-4.715777e-01 1.634088e-01 -1.935467e-01)
(-4.255439e-01 1.684552e-01 -1.948656e-01)
(-3.907126e-01 1.740396e-01 -1.962948e-01)
(-3.666386e-01 1.803829e-01 -1.978790e-01)
(-3.408976e-01 1.869120e-01 -1.994514e-01)
(-3.139386e-01 1.936489e-01 -2.012302e-01)
(-2.858771e-01 2.006820e-01 -2.036628e-01)
(-2.622334e-01 2.078904e-01 -2.064209e-01)
(-2.434154e-01 2.151463e-01 -2.086750e-01)
(-2.367045e-01 2.236358e-01 -2.109951e-01)
(-2.283777e-01 2.324463e-01 -2.134766e-01)
(-2.179025e-01 2.413556e-01 -2.160703e-01)
(-2.068536e-01 2.505181e-01 -2.190856e-01)
(-1.969703e-01 2.599936e-01 -2.221385e-01)
(-1.761022e-01 2.701759e-01 -2.268939e-01)
(-1.519056e-01 2.808680e-01 -2.323956e-01)
(-1.212514e-01 2.922141e-01 -2.372129e-01)
(-8.515004e-02 3.038055e-01 -2.423259e-01)
(-5.482553e-02 3.146830e-01 -2.470734e-01)
(-3.343372e-02 3.252763e-01 -2.512930e-01)
(-1.144187e-02 3.357198e-01 -2.546323e-01)
(9.941184e-03 3.459476e-01 -2.575406e-01)
(2.867944e-02 3.554705e-01 -2.598274e-01)
(4.557523e-02 3.641755e-01 -2.611087e-01)
(6.814234e-02 3.729872e-01 -2.622786e-01)
(1.001931e-01 3.817966e-01 -2.632245e-01)
(1.349596e-01 3.904888e-01 -2.646464e-01)