/*--------------------------------*- C++ -*----------------------------------*\
| =========                 |                                                 |
| \\      /  F ield         | OpenFOAM: The Open Source CFD Toolbox           |
|  \\    /   O peration     | Version:  v2406                                 |
|   \\  /    A nd           | Website:  www.openfoam.com                      |
|    \\/     M anipulation  |                                                 |
\*---------------------------------------------------------------------------*/
FoamFile
{
    version     2.0;
    format      ascii;
    class       volScalarField;
    location    "predicted";
    object      epsilon;
}
// * * * * * * * * * * * * * * * * * * * * * * * * * * * * * * * * * * * * * //

dimensions      [0 2 -3 0 0 0 0];

internalField   nonuniform List<scalar>
49181
(
3.028633e+03
2.015193e+03
1.765108e+03
2.102819e+03
2.200568e+03
2.226619e+03
2.243677e+03
2.251123e+03
2.238837e+03
2.201773e+03
2.175301e+03
2.168907e+03
2.171183e+03
2.169864e+03
2.155132e+03
2.138609e+03
2.253596e+03
2.218341e+03
2.001400e+03
8.159300e+02
7.673639e+02
9.542754e+02
1.018727e+03
1.058588e+03
1.096286e+03
1.140634e+03
1.186968e+03
1.230347e+03
1.258753e+03
1.276315e+03
1.261059e+03
1.213646e+03
1.147076e+03
1.090861e+03
1.121004e+03
1.300184e+03
1.700645e+03
6.682325e+02
4.037192e+02
4.367837e+02
4.863485e+02
5.204744e+02
5.532632e+02
5.917797e+02
6.426023e+02
6.967935e+02
7.402897e+02
7.551533e+02
7.368146e+02
6.721552e+02
5.842311e+02
5.233288e+02
5.254824e+02
6.230842e+02
1.985558e+03
7.066699e+02
2.968324e+02
3.057773e+02
3.348701e+02
3.559686e+02
3.776224e+02
3.998830e+02
4.278620e+02
4.621652e+02
4.859197e+02
4.959854e+02
4.803652e+02
4.310205e+02
3.647536e+02
3.197090e+02
3.208492e+02
3.808521e+02
2.033627e+03
6.327959e+02
2.076459e+02
1.972265e+02
2.122747e+02
2.230090e+02
2.342112e+02
2.472776e+02
2.611967e+02
2.756685e+02
2.915550e+02
2.971942e+02
2.896123e+02
2.578602e+02
2.184507e+02
1.917568e+02
1.923462e+02
2.279682e+02
2.005805e+03
5.369344e+02
1.324220e+02
1.160751e+02
1.235075e+02
1.290103e+02
1.341762e+02
1.391762e+02
1.444946e+02
1.502847e+02
1.559457e+02
1.597215e+02
1.580430e+02
1.437740e+02
1.243460e+02
1.081792e+02
1.082269e+02
1.264761e+02
1.963091e+03
4.335288e+02
8.187273e+01
5.913880e+01
5.922308e+01
6.202000e+01
6.542136e+01
6.904599e+01
7.218547e+01
7.528238e+01
7.824173e+01
8.088529e+01
8.122486e+01
7.233535e+01
5.868905e+01
4.910690e+01
4.927835e+01
5.968487e+01
1.912194e+03
3.397867e+02
5.168872e+01
2.691089e+01
2.422264e+01
2.506097e+01
2.637570e+01
2.779983e+01
2.917122e+01
3.035626e+01
3.144431e+01
3.312262e+01
3.441929e+01
2.972417e+01
2.299551e+01
1.723396e+01
1.737160e+01
2.207807e+01
1.853054e+03
2.608266e+02
2.782059e+01
5.027234e+00
1.676537e+00
2.148535e+00
2.884981e+00
3.715476e+00
4.292391e+00
4.761984e+00
5.156028e+00
6.189885e+00
7.737077e+00
4.859656e+00
1.096325e+00
-2.960793e+00
-2.358190e+00
-2.409745e-02
1.792117e+03
1.938525e+02
1.210105e+01
-8.901300e+00
-1.254911e+01
-1.234937e+01
-1.173530e+01
-1.109721e+01
-1.056392e+01
-1.001875e+01
-9.469633e+00
-8.428738e+00
-7.090728e+00
-9.656900e+00
-1.273231e+01
-1.602673e+01
-1.510937e+01
-1.333827e+01
1.731848e+03
1.454169e+02
5.926711e-01
-1.811042e+01
-2.122886e+01
-2.093531e+01
-2.055029e+01
-2.009347e+01
-1.953256e+01
-1.890207e+01
-1.828317e+01
-1.743717e+01
-1.617569e+01
-1.877824e+01
-2.085964e+01
-2.329791e+01
-2.235596e+01
-2.153117e+01
1.678873e+03
1.172998e+02
-6.108216e+00
-2.311664e+01
-2.535888e+01
-2.487406e+01
-2.425123e+01
-2.371441e+01
-2.320870e+01
-2.267330e+01
-2.216365e+01
-2.152009e+01
-2.046732e+01
-2.284153e+01
-2.469240e+01
-2.728260e+01
-2.640762e+01
-2.538012e+01
1.627457e+03
1.000308e+02
-1.017398e+01
-2.559732e+01
-2.810600e+01
-2.781170e+01
-2.730532e+01
-2.661936e+01
-2.587471e+01
-2.515457e+01
-2.460406e+01
-2.400032e+01
-2.314860e+01
-2.564082e+01
-2.771816e+01
-3.000266e+01
-2.921104e+01
-2.846841e+01
1.575028e+03
8.744873e+01
-1.321856e+01
-2.740296e+01
-2.986240e+01
-2.981792e+01
-2.959059e+01
-2.925906e+01
-2.867899e+01
-2.798703e+01
-2.735553e+01
-2.666723e+01
-2.597954e+01
-2.845915e+01
-3.000762e+01
-3.188513e+01
-3.109805e+01
-3.096132e+01
1.520334e+03
7.848285e+01
-1.589574e+01
-2.903476e+01
-3.134334e+01
-3.144692e+01
-3.126055e+01
-3.112406e+01
-3.075565e+01
-3.033556e+01
-2.992687e+01
-2.923473e+01
-2.854557e+01
-3.051703e+01
-3.170392e+01
-3.362852e+01
-3.292255e+01
-3.282033e+01
1.462483e+03
7.316064e+01
-1.841662e+01
-3.072342e+01
-3.257156e+01
-3.276970e+01
-3.264468e+01
-3.244434e+01
-3.212279e+01
-3.196376e+01
-3.166843e+01
-3.122271e+01
-3.032270e+01
-3.201900e+01
-3.323537e+01
-3.479168e+01
-3.406800e+01
-3.455025e+01
1.402759e+03
6.846971e+01
-2.043798e+01
-3.107343e+01
-3.229515e+01
-3.280991e+01
-3.305345e+01
-3.322774e+01
-3.334543e+01
-3.328618e+01
-3.294461e+01
-3.250091e+01
-3.166582e+01
-3.316095e+01
-3.280388e+01
-3.366306e+01
-3.290045e+01
-3.440848e+01
1.347052e+03
6.625694e+01
-2.123471e+01
-3.023097e+01
-3.114206e+01
-3.131151e+01
-3.136769e+01
-3.158581e+01
-3.191378e+01
-3.216807e+01
-3.227207e+01
-3.208825e+01
-3.121375e+01
-3.140559e+01
-3.125535e+01
-3.264705e+01
-3.186847e+01
-3.275239e+01
1.320688e+03
6.556068e+01
-2.104792e+01
-2.886869e+01
-3.059030e+01
-3.074160e+01
-3.063555e+01
-3.054821e+01
-3.057960e+01
-3.080274e+01
-3.092456e+01
-3.080310e+01
-2.981726e+01
-3.017641e+01
-3.037746e+01
-3.110307e+01
-3.055908e+01
-3.215994e+01
1.365611e+03
6.628127e+01
-2.336785e+01
-3.059956e+01
-3.225503e+01
-3.264806e+01
-3.270178e+01
-3.275384e+01
-3.276441e+01
-3.270600e+01
-3.261456e+01
-3.234251e+01
-3.123857e+01
-3.210913e+01
-3.189421e+01
-3.240508e+01
-3.256366e+01
-3.474699e+01
1.521232e+03
6.993758e+01
-2.556759e+01
-3.528063e+01
-3.601093e+01
-3.594658e+01
-3.583504e+01
-3.573562e+01
-3.583801e+01
-3.598827e+01
-3.603350e+01
-3.555150e+01
-3.436942e+01
-3.498946e+01
-3.546852e+01
-3.681426e+01
-3.730273e+01
-3.447152e+01
1.723625e+03
1.182546e+02
-1.257848e+01
-2.512983e+01
-2.732949e+01
-2.714754e+01
-2.692859e+01
-2.669143e+01
-2.639087e+01
-2.611861e+01
-2.578779e+01
-2.509093e+01
-2.444277e+01
-2.823669e+01
-2.927830e+01
-2.955573e+01
-2.399397e+01
-1.580000e+01
1.840110e+03
1.768852e+02
-1.289861e+01
-2.595460e+01
-2.812340e+01
-2.797625e+01
-2.781236e+01
-2.751447e+01
-2.713712e+01
-2.663590e+01
-2.618807e+01
-2.549546e+01
-2.518988e+01
-2.939242e+01
-3.092753e+01
-3.079410e+01
-2.490102e+01
-1.088432e+01
1.920206e+03
1.855509e+02
-1.667153e+01
-2.923984e+01
-3.121636e+01
-3.110544e+01
-3.090692e+01
-3.062121e+01
-3.020225e+01
-2.973652e+01
-2.915351e+01
-2.841864e+01
-2.817997e+01
-3.229720e+01
-3.372064e+01
-3.385846e+01
-2.863178e+01
-1.545537e+01
1.934303e+03
1.681993e+02
-1.903366e+01
-3.075217e+01
-3.251297e+01
-3.236288e+01
-3.219893e+01
-3.189855e+01
-3.168043e+01
-3.133072e+01
-3.092325e+01
-3.025897e+01
-2.975840e+01
-3.356114e+01
-3.490506e+01
-3.522249e+01
-3.068221e+01
-1.906727e+01
1.917810e+03
1.501529e+02
-2.007830e+01
-3.158142e+01
-3.309090e+01
-3.296362e+01
-3.280795e+01
-3.256984e+01
-3.231160e+01
-3.215554e+01
-3.186024e+01
-3.119934e+01
-3.059493e+01
-3.451378e+01
-3.548459e+01
-3.591638e+01
-3.211067e+01
-2.165602e+01
1.844015e+03
1.332476e+02
-1.623505e+01
-2.998315e+01
-3.171208e+01
-3.141265e+01
-3.115109e+01
-3.086297e+01
-3.071425e+01
-3.053515e+01
-3.031177e+01
-2.960461e+01
-2.920180e+01
-3.321099e+01
-3.464409e+01
-3.502070e+01
-3.131804e+01
-2.140469e+01
1.560720e+03
1.213572e+02
3.618754e+00
-1.542552e+01
-1.979475e+01
-1.947228e+01
-1.860335e+01
-1.784764e+01
-1.741846e+01
-1.606884e+01
-1.397223e+01
-1.216365e+01
-1.244369e+01
-1.888280e+01
-2.219807e+01
-2.426632e+01
-1.711597e+01
-3.930179e+00
1.918347e+03
2.525600e+02
7.118512e+01
7.737527e+01
7.877078e+01
8.196947e+01
8.547227e+01
8.951251e+01
9.631929e+01
1.212089e+02
1.545991e+02
1.848639e+02
1.786165e+02
1.533259e+02
1.295611e+02
1.297969e+02
1.591720e+02
2.125391e+02
3.154777e+03
1.815952e+03
1.173764e+03
1.409965e+03
1.527809e+03
1.572894e+03
1.608827e+03
1.659719e+03
1.731800e+03
1.798453e+03
1.868815e+03
1.909738e+03
1.921164e+03
1.901589e+03
1.880155e+03
1.870423e+03
1.884516e+03
1.901910e+03
8.076029e+02
5.465339e+01
-1.117184e+01
-2.009469e+01
-1.865310e+01
-1.766845e+01
-1.694486e+01
-1.628595e+01
-1.561113e+01
-1.493110e+01
-1.426926e+01
-1.360298e+01
-1.291812e+01
-1.219816e+01
-1.149702e+01
-1.080274e+01
-1.015922e+01
-9.522879e+00
-8.899993e+00
-8.294598e+00
-7.775710e+00
-7.273036e+00
-6.840030e+00
-6.435384e+00
-6.029758e+00
-5.621727e+00
-5.320277e+00
-5.021529e+00
-4.731453e+00
-4.583593e+00
-4.444376e+00
-4.316354e+00
-4.193915e+00
-4.083681e+00
-3.961955e+00
-3.845514e+00
-3.740270e+00
-3.640192e+00
-3.552587e+00
-3.425337e+00
-3.272637e+00
-3.021107e+00
-2.652365e+00
-2.212885e+00
-1.601491e+00
-9.871579e-01
-3.933746e-01
1.714249e-01
7.615556e-01
1.370098e+00
2.062860e+00
2.761651e+00
3.430032e+00
4.092533e+00
4.742235e+00
5.399480e+00
6.282033e+00
7.403109e+00
8.689298e+00
1.030503e+01
1.194865e+01
1.357950e+01
1.520761e+01
1.680223e+01
1.845936e+01
2.027433e+01
2.227008e+01
2.454472e+01
2.679757e+01
2.896509e+01
3.129556e+01
3.381796e+01
3.631865e+01
3.912502e+01
4.195918e+01
4.475804e+01
4.744117e+01
5.012832e+01
5.314186e+01
5.617780e+01
5.872867e+01
6.116567e+01
6.373027e+01
6.646899e+01
6.941835e+01
7.269760e+01
7.612163e+01
7.985495e+01
8.367156e+01
8.745093e+01
9.086947e+01
9.423284e+01
9.757081e+01
1.011884e+02
1.048992e+02
1.087256e+02
1.127246e+02
1.167534e+02
1.205871e+02
1.244233e+02
1.285741e+02
1.326891e+02
1.367448e+02
1.411791e+02
1.465598e+02
1.531411e+02
1.598087e+02
1.665670e+02
1.738323e+02
1.814065e+02
1.894406e+02
1.970528e+02
2.046373e+02
2.123444e+02
2.204720e+02
2.291443e+02
2.380964e+02
2.468600e+02
2.557404e+02
2.654847e+02
2.758764e+02
2.870620e+02
2.983947e+02
3.093743e+02
3.201039e+02
3.306417e+02
3.405566e+02
3.500245e+02
3.598931e+02
3.699240e+02
3.796019e+02
3.893392e+02
3.989663e+02
4.095411e+02
4.199842e+02
4.298659e+02
4.397075e+02
4.501709e+02
4.610422e+02
4.715200e+02
4.822431e+02
4.930785e+02
5.034783e+02
5.123739e+02
5.195574e+02
5.258114e+02
5.320119e+02
5.371921e+02
5.413319e+02
5.442806e+02
5.468521e+02
5.497979e+02
5.542258e+02
5.582268e+02
5.617018e+02
5.647110e+02
5.658754e+02
5.666073e+02
5.659906e+02
5.653226e+02
5.638693e+02
5.618375e+02
5.606028e+02
5.598603e+02
5.585416e+02
5.558563e+02
5.521603e+02
5.470989e+02
5.413446e+02
5.358498e+02
5.306711e+02
5.264217e+02
5.241434e+02
5.316850e+02
5.529642e+02
5.718436e+02
5.056076e+02
3.911583e+02
3.868136e+02
4.630010e+02
7.172211e+01
-6.287907e+01
-7.078211e+01
-7.108448e+01
-7.149272e+01
-7.084613e+01
-6.988682e+01
-6.887728e+01
-6.782804e+01
-6.676897e+01
-6.573520e+01
-6.469621e+01
-6.368094e+01
-6.266116e+01
-6.168575e+01
-6.069415e+01
-5.969183e+01
-5.866747e+01
-5.766049e+01
-5.668626e+01
-5.571560e+01
-5.473894e+01
-5.377407e+01
-5.280296e+01
-5.184821e+01
-5.089653e+01
-4.992429e+01
-4.896358e+01
-4.800702e+01
-4.706047e+01
-4.627209e+01
-4.554336e+01
-4.483174e+01
-4.405972e+01
-4.342190e+01
-4.289407e+01
-4.241367e+01
-4.199922e+01
-4.176393e+01
-4.154926e+01
-4.133473e+01
-4.112786e+01
-4.089584e+01
-4.064482e+01
-4.045978e+01
-4.032116e+01
-4.017327e+01
-3.997653e+01
-3.988658e+01
-3.973304e+01
-3.949972e+01
-3.924804e+01
-3.898635e+01
-3.860989e+01
-3.821727e+01
-3.762438e+01
-3.697880e+01
-3.628699e+01
-3.557873e+01
-3.469635e+01
-3.387028e+01
-3.300870e+01
-3.207875e+01
-3.112715e+01
-3.013947e+01
-2.926048e+01
-2.854358e+01
-2.784770e+01
-2.699781e+01
-2.575180e+01
-2.436806e+01
-2.278588e+01
-2.115664e+01
-1.972066e+01
-1.808895e+01
-1.629409e+01
-1.451033e+01
-1.254451e+01
-1.045066e+01
-8.344548e+00
-6.335277e+00
-4.308811e+00
-2.116935e+00
1.620408e-01
2.494678e+00
4.913555e+00
7.229859e+00
9.531969e+00
1.189095e+01
1.402809e+01
1.611431e+01
1.844769e+01
2.086030e+01
2.338929e+01
2.619449e+01
2.931106e+01
3.242160e+01
3.571492e+01
3.925649e+01
4.300425e+01
4.682954e+01
5.073725e+01
5.468846e+01
5.869113e+01
6.255501e+01
6.671934e+01
7.113299e+01
7.573287e+01
8.094855e+01
8.633817e+01
9.247373e+01
9.871927e+01
1.051600e+02
1.115946e+02
1.180918e+02
1.245766e+02
1.310367e+02
1.381567e+02
1.457268e+02
1.532035e+02
1.612624e+02
1.689410e+02
1.763682e+02
1.833263e+02
1.908356e+02
1.989260e+02
2.071541e+02
2.155015e+02
2.239820e+02
2.319192e+02
2.390213e+02
2.450509e+02
2.507366e+02
2.572010e+02
2.636756e+02
2.696653e+02
2.748169e+02
2.800035e+02
2.849987e+02
2.906255e+02
2.963500e+02
3.012316e+02
3.059844e+02
3.102822e+02
3.134859e+02
3.160557e+02
3.184403e+02
3.203685e+02
3.221952e+02
3.242890e+02
3.267975e+02
3.290250e+02
3.298693e+02
3.304581e+02
3.313878e+02
3.314209e+02
3.306038e+02
3.302271e+02
3.293120e+02
3.279726e+02
3.267489e+02
3.254905e+02
3.242416e+02
3.228259e+02
3.207828e+02
3.188932e+02
3.172036e+02
3.152279e+02
3.128755e+02
3.106287e+02
3.083795e+02
3.073832e+02
3.068863e+02
3.102362e+02
3.123193e+02
3.216097e+02
2.804249e+02
2.246370e+02
2.057752e+02
2.729929e+02
6.308849e+00
-6.136618e+01
-5.937208e+01
-6.029176e+01
-6.029449e+01
-5.946601e+01
-5.842411e+01
-5.736638e+01
-5.628352e+01
-5.521513e+01
-5.414216e+01
-5.305532e+01
-5.194087e+01
-5.081917e+01
-4.970118e+01
-4.859284e+01
-4.765215e+01
-4.677770e+01
-4.592083e+01
-4.505595e+01
-4.418566e+01
-4.330219e+01
-4.237372e+01
-4.152363e+01
-4.070727e+01
-3.988331e+01
-3.904563e+01
-3.820622e+01
-3.737398e+01
-3.651301e+01
-3.566577e+01
-3.483922e+01
-3.395958e+01
-3.309167e+01
-3.243650e+01
-3.181676e+01
-3.115456e+01
-3.040828e+01
-2.967291e+01
-2.891407e+01
-2.806225e+01
-2.725602e+01
-2.648222e+01
-2.561867e+01
-2.476189e+01
-2.394936e+01
-2.296914e+01
-2.190918e+01
-2.094903e+01
-2.015001e+01
-1.935604e+01
-1.849152e+01
-1.758304e+01
-1.665306e+01
-1.556931e+01
-1.419977e+01
-1.286529e+01
-1.169031e+01
-1.037095e+01
-8.837066e+00
-7.378518e+00
-5.829811e+00
-4.164040e+00
-2.438490e+00
-5.624670e-01
1.290808e+00
3.296427e+00
5.306144e+00
7.323344e+00
9.528881e+00
1.153471e+01
1.375379e+01
1.622656e+01
1.867718e+01
2.091613e+01
2.313720e+01
2.549151e+01
2.804886e+01
3.073640e+01
3.394872e+01
3.708904e+01
3.977539e+01
4.240160e+01
4.504458e+01
4.727652e+01
4.941390e+01
5.155011e+01
5.368795e+01
5.583650e+01
5.805501e+01
6.027537e+01
6.282372e+01
6.574937e+01
6.886085e+01
7.197333e+01
7.525630e+01
7.863442e+01
8.206597e+01
8.548362e+01
8.880751e+01
9.219172e+01
9.534198e+01
9.844596e+01
1.014144e+02
1.045764e+02
1.077766e+02
1.106496e+02
1.133583e+02
1.159424e+02
1.184184e+02
1.211077e+02
1.236211e+02
1.264663e+02
1.297177e+02
1.329249e+02
1.365190e+02
1.399901e+02
1.436275e+02
1.473461e+02
1.506321e+02
1.537702e+02
1.571700e+02
1.603667e+02
1.635447e+02
1.669331e+02
1.704033e+02
1.740948e+02
1.776134e+02
1.824605e+02
1.873538e+02
1.920968e+02
1.967090e+02
2.003102e+02
2.044442e+02
2.084345e+02
2.123624e+02
2.163746e+02
2.205499e+02
2.249678e+02
2.293168e+02
2.332448e+02
2.357101e+02
2.367948e+02
2.375245e+02
2.380459e+02
2.385380e+02
2.393758e+02
2.403880e+02
2.412709e+02
2.425795e+02
2.439885e+02
2.451672e+02
2.463978e+02
2.475365e+02
2.482337e+02
2.488883e+02
2.500777e+02
2.507733e+02
2.505395e+02
2.500216e+02
2.492692e+02
2.486040e+02
2.488683e+02
2.493673e+02
2.500209e+02
2.505444e+02
2.510980e+02
2.517110e+02
2.518768e+02
2.520974e+02
2.517758e+02
2.508958e+02
2.492758e+02
2.487649e+02
2.549127e+02
2.354373e+02
2.093443e+02
1.748215e+02
1.782064e+02
2.019539e+02
1.218052e+01
-5.360287e+01
-5.332354e+01
-5.400226e+01
-5.401639e+01
-5.336164e+01
-5.254270e+01
-5.169522e+01
-5.082867e+01
-5.002265e+01
-4.928302e+01
-4.852766e+01
-4.778337e+01
-4.705783e+01
-4.633385e+01
-4.560944e+01
-4.487857e+01
-4.412829e+01
-4.339558e+01
-4.277653e+01
-4.220716e+01
-4.161165e+01
-4.091215e+01
-4.018835e+01
-3.942310e+01
-3.867932e+01
-3.791757e+01
-3.709587e+01
-3.624675e+01
-3.530169e+01
-3.430611e+01
-3.333346e+01
-3.237156e+01
-3.123646e+01
-3.001412e+01
-2.878937e+01
-2.755272e+01
-2.629546e+01
-2.500941e+01
-2.370098e+01
-2.236193e+01
-2.089516e+01
-1.939186e+01
-1.759560e+01
-1.578236e+01
-1.400603e+01
-1.223528e+01
-1.040745e+01
-8.551385e+00
-6.694427e+00
-4.853595e+00
-2.957319e+00
-1.116576e+00
7.494097e-01
2.706682e+00
4.658491e+00
6.717207e+00
8.658533e+00
1.062593e+01
1.273222e+01
1.509735e+01
1.783775e+01
2.035183e+01
2.299759e+01
2.588449e+01
2.913279e+01
3.246204e+01
3.590599e+01
3.922568e+01
4.290053e+01
4.642866e+01
4.993862e+01
5.334867e+01
5.688807e+01
6.045984e+01
6.376017e+01
6.707416e+01
7.051913e+01
7.396110e+01
7.734745e+01
8.064043e+01
8.342558e+01
8.611528e+01
8.887650e+01
9.165366e+01
9.433051e+01
9.694647e+01
9.959568e+01
1.022949e+02
1.054154e+02
1.084821e+02
1.120887e+02
1.161282e+02
1.204302e+02
1.248925e+02
1.290126e+02
1.328797e+02
1.364419e+02
1.398559e+02
1.432497e+02
1.467721e+02
1.497835e+02
1.524566e+02
1.550396e+02
1.575817e+02
1.597046e+02
1.617352e+02
1.640009e+02
1.663113e+02
1.685674e+02
1.713663e+02
1.751548e+02
1.794138e+02
1.841500e+02
1.889132e+02
1.933117e+02
1.975786e+02
2.019109e+02
2.064309e+02
2.104566e+02
2.143702e+02
2.177396e+02
2.206347e+02
2.225996e+02
2.240380e+02
2.253246e+02
2.258801e+02
2.266030e+02
2.270259e+02
2.273058e+02
2.279918e+02
2.285952e+02
2.285934e+02
2.281047e+02
2.275517e+02
2.272930e+02
2.275347e+02
2.283087e+02
2.293539e+02
2.315444e+02
2.331329e+02
2.344900e+02
2.362375e+02
2.379578e+02
2.401510e+02
2.428444e+02
2.448204e+02
2.466155e+02
2.483324e+02
2.490380e+02
2.500806e+02
2.514172e+02
2.529546e+02
2.537450e+02
2.539996e+02
2.539404e+02
2.539971e+02
2.540142e+02
2.538096e+02
2.535875e+02
2.535452e+02
2.533941e+02
2.538559e+02
2.554783e+02
2.568018e+02
2.570878e+02
2.572377e+02
2.565468e+02
2.552361e+02
2.531560e+02
2.499738e+02
2.471974e+02
2.454373e+02
2.494037e+02
2.582334e+02
2.285659e+02
2.170795e+02
1.864250e+02
1.883899e+02
1.991609e+02
2.807476e+01
-4.607460e+01
-4.581802e+01
-4.606471e+01
-4.594940e+01
-4.538992e+01
-4.470761e+01
-4.403762e+01
-4.342406e+01
-4.280825e+01
-4.224428e+01
-4.177121e+01
-4.132021e+01
-4.080343e+01
-4.019316e+01
-3.960330e+01
-3.904004e+01
-3.846277e+01
-3.788422e+01
-3.730193e+01
-3.669125e+01
-3.603119e+01
-3.529308e+01
-3.450716e+01
-3.369311e+01
-3.284400e+01
-3.192819e+01
-3.099280e+01
-2.992966e+01
-2.872974e+01
-2.762607e+01
-2.649398e+01
-2.532176e+01
-2.410290e+01
-2.275535e+01
-2.132935e+01
-1.970804e+01
-1.771653e+01
-1.568180e+01
-1.359556e+01
-1.147858e+01
-9.338909e+00
-7.302613e+00
-5.258656e+00
-3.069839e+00
-8.020294e-01
1.452863e+00
3.839726e+00
6.236924e+00
8.600714e+00
1.080996e+01
1.307162e+01
1.553086e+01
1.809201e+01
2.064544e+01
2.354312e+01
2.683641e+01
3.018078e+01
3.306132e+01
3.608126e+01
3.923276e+01
4.262389e+01
4.610571e+01
4.988364e+01
5.341005e+01
5.706704e+01
6.062951e+01
6.424063e+01
6.782773e+01
7.141728e+01
7.505832e+01
7.880598e+01
8.260533e+01
8.648588e+01
9.038938e+01
9.403981e+01
9.787667e+01
1.018309e+02
1.057462e+02
1.097161e+02
1.137780e+02
1.173758e+02
1.208083e+02
1.241563e+02
1.279255e+02
1.317491e+02
1.355358e+02
1.392325e+02
1.428146e+02
1.466622e+02
1.507233e+02
1.546063e+02
1.582799e+02
1.621099e+02
1.659713e+02
1.697474e+02
1.735047e+02
1.776365e+02
1.819546e+02
1.860717e+02
1.904728e+02
1.944155e+02
1.977202e+02
2.006492e+02
2.027903e+02
2.050965e+02
2.078956e+02
2.111808e+02
2.147676e+02
2.185519e+02
2.220105e+02
2.260691e+02
2.308509e+02
2.363600e+02
2.422363e+02
2.488814e+02
2.554557e+02
2.610216e+02
2.665980e+02
2.705164e+02
2.729593e+02
2.752022e+02
2.774427e+02
2.789956e+02
2.799247e+02
2.808992e+02
2.816812e+02
2.826291e+02
2.833865e+02
2.837888e+02
2.841587e+02
2.841162e+02
2.836812e+02
2.825056e+02
2.809625e+02
2.786530e+02
2.758282e+02
2.734865e+02
2.722074e+02
2.708559e+02
2.692903e+02
2.690749e+02
2.702258e+02
2.719804e+02
2.742757e+02
2.758469e+02
2.768680e+02
2.776704e+02
2.791918e+02
2.803187e+02
2.814730e+02
2.828497e+02
2.839450e+02
2.845324e+02
2.847451e+02
2.849066e+02
2.850576e+02
2.851447e+02
2.848840e+02
2.841192e+02
2.837679e+02
2.827206e+02
2.819168e+02
2.813416e+02
2.812661e+02
2.806981e+02
2.800961e+02
2.789308e+02
2.768408e+02
2.743217e+02
2.704530e+02
2.662235e+02
2.632562e+02
2.676932e+02
2.824463e+02
2.475397e+02
2.274107e+02
2.083326e+02
2.049885e+02
2.044691e+02
5.165661e+01
-3.507795e+01
-3.558672e+01
-3.610237e+01
-3.654452e+01
-3.616696e+01
-3.559096e+01
-3.499941e+01
-3.437495e+01
-3.376599e+01
-3.318123e+01
-3.262303e+01
-3.210957e+01
-3.158590e+01
-3.107548e+01
-3.058780e+01
-3.010817e+01
-2.957117e+01
-2.895909e+01
-2.834755e+01
-2.774970e+01
-2.712153e+01
-2.644067e+01
-2.570749e+01
-2.491326e+01
-2.394072e+01
-2.293273e+01
-2.182906e+01
-2.054409e+01
-1.920495e+01
-1.783585e+01
-1.636085e+01
-1.467444e+01
-1.295993e+01
-1.117541e+01
-9.254897e+00
-7.282360e+00
-5.221179e+00
-3.085668e+00
-8.172934e-01
1.461296e+00
3.778106e+00
6.138539e+00
8.556169e+00
1.117746e+01
1.390158e+01
1.666248e+01
1.983488e+01
2.308918e+01
2.632759e+01
2.976253e+01
3.346377e+01
3.707009e+01
4.065213e+01
4.425872e+01
4.763096e+01
5.115072e+01
5.478044e+01
5.884010e+01
6.296242e+01
6.693657e+01
7.096421e+01
7.508025e+01
7.893501e+01
8.273157e+01
8.614330e+01
8.954709e+01
9.304219e+01
9.653598e+01
1.002258e+02
1.040242e+02
1.082050e+02
1.124014e+02
1.162709e+02
1.201173e+02
1.243273e+02
1.284599e+02
1.329066e+02
1.374594e+02
1.424865e+02
1.475937e+02
1.524255e+02
1.570044e+02
1.609272e+02
1.642378e+02
1.675493e+02
1.711487e+02
1.747137e+02
1.783536e+02
1.820282e+02
1.862625e+02
1.905471e+02
1.951290e+02
1.998479e+02
2.045075e+02
2.090671e+02
2.135211e+02
2.186338e+02
2.241072e+02
2.295868e+02
2.350858e+02
2.406747e+02
2.459701e+02
2.509741e+02
2.554318e+02
2.591044e+02
2.628627e+02
2.666884e+02
2.705939e+02
2.747201e+02
2.794002e+02
2.842553e+02
2.900648e+02
2.965075e+02
3.024010e+02
3.077597e+02
3.129618e+02
3.173095e+02
3.211679e+02
3.247472e+02
3.272669e+02
3.290497e+02
3.307419e+02
3.315258e+02
3.318258e+02
3.324426e+02
3.331816e+02
3.343005e+02
3.354756e+02
3.365511e+02
3.372428e+02
3.375996e+02
3.371014e+02
3.355812e+02
3.339341e+02
3.321320e+02
3.301098e+02
3.279492e+02
3.256460e+02
3.229113e+02
3.191922e+02
3.160058e+02
3.137835e+02
3.126116e+02
3.117381e+02
3.114939e+02
3.124370e+02
3.141661e+02
3.158286e+02
3.181262e+02
3.195720e+02
3.196982e+02
3.200412e+02
3.202810e+02
3.206893e+02
3.203776e+02
3.200151e+02
3.195329e+02
3.189493e+02
3.185808e+02
3.180674e+02
3.168854e+02
3.155716e+02
3.136712e+02
3.122931e+02
3.112164e+02
3.093709e+02
3.065727e+02
3.029907e+02
2.993228e+02
2.948025e+02
2.897710e+02
2.851441e+02
2.864492e+02
3.055843e+02
2.698099e+02
2.432557e+02
2.266295e+02
2.203919e+02
2.080088e+02
8.934591e+01
-2.091179e+01
-2.343125e+01
-2.622695e+01
-2.665772e+01
-2.620550e+01
-2.570120e+01
-2.519217e+01
-2.472076e+01
-2.423704e+01
-2.372088e+01
-2.316077e+01
-2.255823e+01
-2.195943e+01
-2.137449e+01
-2.078501e+01
-2.014523e+01
-1.944273e+01
-1.872576e+01
-1.799125e+01
-1.722231e+01
-1.625804e+01
-1.531737e+01
-1.432755e+01
-1.331537e+01
-1.212501e+01
-1.085649e+01
-9.266716e+00
-7.468944e+00
-5.530944e+00
-3.509527e+00
-1.430766e+00
7.986466e-01
3.038809e+00
5.281793e+00
7.654135e+00
1.022838e+01
1.285724e+01
1.551188e+01
1.821653e+01
2.114075e+01
2.402952e+01
2.686810e+01
2.973774e+01
3.279877e+01
3.607832e+01
3.960522e+01
4.327377e+01
4.692988e+01
5.086525e+01
5.490936e+01
5.891641e+01
6.289364e+01
6.699623e+01
7.125659e+01
7.555072e+01
8.002485e+01
8.457015e+01
8.890692e+01
9.325548e+01
9.759467e+01
1.020109e+02
1.065256e+02
1.109318e+02
1.148302e+02
1.187088e+02
1.225790e+02
1.264742e+02
1.304743e+02
1.345133e+02
1.390787e+02
1.438183e+02
1.484206e+02
1.526679e+02
1.571249e+02
1.618080e+02
1.664199e+02
1.710191e+02
1.757416e+02
1.802068e+02
1.843418e+02
1.883264e+02
1.930673e+02
1.978201e+02
2.026832e+02
2.067824e+02
2.106362e+02
2.145092e+02
2.184039e+02
2.226951e+02
2.270927e+02
2.321987e+02
2.377788e+02
2.436891e+02
2.497205e+02
2.558217e+02
2.618133e+02
2.676599e+02
2.733483e+02
2.789660e+02
2.848115e+02
2.906350e+02
2.956124e+02
3.005736e+02
3.056353e+02
3.108656e+02
3.165427e+02
3.223272e+02
3.280913e+02
3.324606e+02
3.359425e+02
3.389803e+02
3.416123e+02
3.451479e+02
3.497436e+02
3.556402e+02
3.620636e+02
3.680091e+02
3.729494e+02
3.771721e+02
3.805834e+02
3.829080e+02
3.845516e+02
3.854204e+02
3.859612e+02
3.864911e+02
3.873739e+02
3.885457e+02
3.895225e+02
3.913272e+02
3.938682e+02
3.962933e+02
3.973663e+02
3.972536e+02
3.966846e+02
3.948526e+02
3.918508e+02
3.881971e+02
3.846924e+02
3.807818e+02
3.765563e+02
3.723262e+02
3.684304e+02
3.654845e+02
3.640314e+02
3.631942e+02
3.642336e+02
3.652955e+02
3.661633e+02
3.668970e+02
3.665849e+02
3.653063e+02
3.634165e+02
3.618327e+02
3.604278e+02
3.584758e+02
3.568423e+02
3.554412e+02
3.545527e+02
3.536000e+02
3.519257e+02
3.496541e+02
3.474180e+02
3.454514e+02
3.433849e+02
3.415966e+02
3.396157e+02
3.374766e+02
3.345569e+02
3.309525e+02
3.258173e+02
3.198112e+02
3.142509e+02
3.154845e+02
3.352744e+02
2.940354e+02
2.639830e+02
2.424401e+02
2.286672e+02
2.134956e+02
1.459730e+02
-3.464002e+00
-9.501052e+00
-1.383162e+01
-1.436981e+01
-1.391753e+01
-1.335291e+01
-1.278511e+01
-1.223406e+01
-1.167250e+01
-1.109742e+01
-1.047623e+01
-9.836950e+00
-9.186298e+00
-8.490388e+00
-7.772295e+00
-7.071752e+00
-6.190209e+00
-5.266110e+00
-4.130334e+00
-2.921238e+00
-1.588306e+00
8.746983e-03
1.685031e+00
3.441109e+00
5.272379e+00
7.242273e+00
9.343217e+00
1.164435e+01
1.402973e+01
1.642404e+01
1.887294e+01
2.142504e+01
2.422068e+01
2.703279e+01
2.997463e+01
3.290138e+01
3.584728e+01
3.896539e+01
4.228240e+01
4.595634e+01
4.997996e+01
5.411484e+01
5.821775e+01
6.227830e+01
6.672839e+01
7.128651e+01
7.587904e+01
8.016380e+01
8.423517e+01
8.863668e+01
9.285342e+01
9.706747e+01
1.017449e+02
1.065216e+02
1.110820e+02
1.154987e+02
1.199830e+02
1.246409e+02
1.295011e+02
1.342808e+02
1.390249e+02
1.435559e+02
1.478200e+02
1.520810e+02
1.565138e+02
1.613403e+02
1.662428e+02
1.710616e+02
1.758496e+02
1.810485e+02
1.861589e+02
1.912600e+02
1.961329e+02
2.013346e+02
2.063492e+02
2.110694e+02
2.155954e+02
2.200839e+02
2.245113e+02
2.286416e+02
2.328603e+02
2.373055e+02
2.417599e+02
2.459143e+02
2.501216e+02
2.551539e+02
2.600145e+02
2.648467e+02
2.702064e+02
2.756808e+02
2.817551e+02
2.877240e+02
2.937101e+02
3.004824e+02
3.070374e+02
3.132969e+02
3.195391e+02
3.253486e+02
3.303892e+02
3.350614e+02
3.391964e+02
3.432092e+02
3.474156e+02
3.514048e+02
3.560947e+02
3.620737e+02
3.683914e+02
3.743331e+02
3.805763e+02
3.865307e+02
3.913588e+02
3.957890e+02
4.000046e+02
4.045905e+02
4.097435e+02
4.149858e+02
4.202585e+02
4.248489e+02
4.285933e+02
4.313532e+02
4.335524e+02
4.352396e+02
4.363488e+02
4.367086e+02
4.376610e+02
4.395302e+02
4.425993e+02
4.458000e+02
4.490788e+02
4.519992e+02
4.545261e+02
4.565179e+02
4.579794e+02
4.589827e+02
4.587033e+02
4.566918e+02
4.540357e+02
4.502898e+02
4.463875e+02
4.422729e+02
4.375868e+02
4.331970e+02
4.286452e+02
4.255926e+02
4.234235e+02
4.228823e+02
4.211157e+02
4.188290e+02
4.167925e+02
4.146948e+02
4.118018e+02
4.093263e+02
4.077117e+02
4.055553e+02
4.021286e+02
3.990595e+02
3.962428e+02
3.935252e+02
3.902369e+02
3.872010e+02
3.851644e+02
3.828278e+02
3.799105e+02
3.768741e+02
3.738685e+02
3.704062e+02
3.672640e+02
3.633642e+02
3.584112e+02
3.525177e+02
3.465437e+02
3.409407e+02
3.411859e+02
3.620516e+02
3.202224e+02
2.871838e+02
2.634182e+02
2.332348e+02
2.187727e+02
2.565384e+02
1.953942e+01
1.050652e+01
4.649523e+00
3.133185e+00
3.386081e+00
3.875837e+00
4.379046e+00
4.903696e+00
5.531868e+00
6.252545e+00
7.158766e+00
8.229981e+00
9.378942e+00
1.050498e+01
1.200112e+01
1.353183e+01
1.501901e+01
1.671602e+01
1.844038e+01
2.027085e+01
2.217431e+01
2.426463e+01
2.644563e+01
2.866483e+01
3.098678e+01
3.347880e+01
3.615422e+01
3.897301e+01
4.177757e+01
4.462599e+01
4.740702e+01
5.046085e+01
5.355277e+01
5.675050e+01
6.019188e+01
6.419398e+01
6.854196e+01
7.317055e+01
7.787762e+01
8.268529e+01
8.743118e+01
9.206048e+01
9.675647e+01
1.015301e+02
1.061210e+02
1.108623e+02
1.156073e+02
1.205567e+02
1.254531e+02
1.299165e+02
1.342728e+02
1.387476e+02
1.433282e+02
1.478488e+02
1.524059e+02
1.570309e+02
1.617170e+02
1.660967e+02
1.706434e+02
1.756451e+02
1.811944e+02
1.866535e+02
1.919427e+02
1.972973e+02
2.027331e+02
2.089043e+02
2.154204e+02
2.217859e+02
2.276048e+02
2.328649e+02
2.378702e+02
2.426462e+02
2.471903e+02
2.516523e+02
2.562681e+02
2.607446e+02
2.648661e+02
2.692390e+02
2.734739e+02
2.780569e+02
2.826410e+02
2.877266e+02
2.929339e+02
2.977086e+02
3.026991e+02
3.078278e+02
3.126476e+02
3.174967e+02
3.223170e+02
3.270638e+02
3.325970e+02
3.379427e+02
3.431535e+02
3.485419e+02
3.539074e+02
3.602258e+02
3.662450e+02
3.717406e+02
3.766246e+02
3.811363e+02
3.852219e+02
3.886903e+02
3.924499e+02
3.975758e+02
4.032748e+02
4.098499e+02
4.174951e+02
4.256169e+02
4.330710e+02
4.396434e+02
4.456628e+02
4.513473e+02
4.565720e+02
4.617087e+02
4.659463e+02
4.690569e+02
4.718775e+02
4.747066e+02
4.771664e+02
4.793792e+02
4.815154e+02
4.838161e+02
4.864577e+02
4.889456e+02
4.919482e+02
4.954288e+02
4.991025e+02
5.023324e+02
5.052963e+02
5.090975e+02
5.127207e+02
5.157300e+02
5.175856e+02
5.186187e+02
5.181894e+02
5.163631e+02
5.125373e+02
5.081762e+02
5.034240e+02
4.985888e+02
4.943148e+02
4.904798e+02
4.865786e+02
4.823742e+02
4.779191e+02
4.744587e+02
4.709116e+02
4.673656e+02
4.646109e+02
4.629140e+02
4.618666e+02
4.602796e+02
4.578394e+02
4.544479e+02
4.502139e+02
4.460464e+02
4.424885e+02
4.385966e+02
4.337423e+02
4.288860e+02
4.247843e+02
4.211163e+02
4.181851e+02
4.141528e+02
4.094733e+02
4.040650e+02
3.975842e+02
3.908963e+02
3.834057e+02
3.755706e+02
3.686794e+02
3.625298e+02
3.637374e+02
3.822275e+02
3.441515e+02
3.130028e+02
2.820730e+02
2.398398e+02
2.243009e+02
4.190837e+02
5.739456e+01
3.706199e+01
3.176058e+01
3.273600e+01
3.409738e+01
3.564786e+01
3.719420e+01
3.869889e+01
4.022561e+01
4.175034e+01
4.331640e+01
4.492523e+01
4.648390e+01
4.809761e+01
4.975124e+01
5.142528e+01
5.319260e+01
5.519848e+01
5.731968e+01
5.951120e+01
6.166796e+01
6.394939e+01
6.632767e+01
6.888808e+01
7.170808e+01
7.457287e+01
7.745626e+01