/*--------------------------------*- C++ -*----------------------------------*\
| =========                 |                                                 |
| \\      /  F ield         | OpenFOAM: The Open Source CFD Toolbox           |
|  \\    /   O peration     | Version:  v2406                                 |
|   \\  /    A nd           | Website:  www.openfoam.com                      |
|    \\/     M anipulation  |                                                 |
\*---------------------------------------------------------------------------*/
FoamFile
{
    version     2.0;
    format      ascii;
    class       volScalarField;
    location    "predicted";
    object      k;
}
// * * * * * * * * * * * * * * * * * * * * * * * * * * * * * * * * * * * * * //

dimensions      [0 2 -2 0 0 0 0];

internalField   nonuniform List<scalar>
49181
(
1.144972e+00
1.511586e+00
1.396765e+00
1.493979e+00
1.512118e+00
1.529709e+00
1.544761e+00
1.558240e+00
1.561362e+00
1.572796e+00
1.559581e+00
1.556472e+00
1.556975e+00
1.545562e+00
1.527758e+00
1.491642e+00
1.614258e+00
1.331769e+00
1.494043e+00
8.474418e-01
8.731745e-01
9.665981e-01
9.979922e-01
1.036932e+00
1.073731e+00
1.114782e+00
1.165574e+00
1.218042e+00
1.257394e+00
1.278871e+00
1.262930e+00
1.197978e+00
1.123117e+00
1.064636e+00
1.117033e+00
1.315564e+00
1.332227e+00
7.983583e-01
6.318991e-01
6.102148e-01
6.327731e-01
6.622346e-01
6.952812e-01
7.362980e-01
7.888584e-01
8.489809e-01
8.914204e-01
9.118084e-01
8.971610e-01
8.178691e-01
7.190183e-01
6.589680e-01
6.605361e-01
7.534369e-01
1.402720e+00
7.692735e-01
5.230856e-01
4.740281e-01
4.716467e-01
4.849349e-01
5.021889e-01
5.199425e-01
5.446425e-01
5.725154e-01
5.855337e-01
6.073793e-01
5.994142e-01
5.454831e-01
4.879834e-01
4.551298e-01
4.574435e-01
4.915365e-01
1.402358e+00
6.931723e-01
4.636013e-01
3.994035e-01
3.897635e-01
3.944117e-01
4.005291e-01
4.074337e-01
4.146165e-01
4.239562e-01
4.332062e-01
4.425055e-01
4.421502e-01
4.130752e-01
3.881378e-01
3.719712e-01
3.730419e-01
3.861466e-01
1.392544e+00
6.360700e-01
4.296113e-01
3.699651e-01
3.512689e-01
3.471363e-01
3.445968e-01
3.428705e-01
3.432404e-01
3.449780e-01
3.475361e-01
3.520805e-01
3.574524e-01
3.448290e-01
3.408668e-01
3.366984e-01
3.367046e-01
3.294159e-01
1.374871e+00
5.821004e-01
4.204258e-01
3.583166e-01
3.327830e-01
3.256819e-01
3.216173e-01
3.186501e-01
3.152029e-01
3.125859e-01
3.112714e-01
3.132243e-01
3.206061e-01
3.176094e-01
3.197553e-01
3.213349e-01
3.209221e-01
3.073912e-01
1.348122e+00
5.397127e-01
4.153491e-01
3.518035e-01
3.272751e-01
3.198001e-01
3.144646e-01
3.102009e-01
3.066860e-01
3.034874e-01
3.007614e-01
3.021733e-01
3.085645e-01
3.087394e-01
3.151012e-01
3.184134e-01
3.179776e-01
3.031096e-01
1.312939e+00
5.134055e-01
4.122475e-01
3.532535e-01
3.309503e-01
3.238803e-01
3.186482e-01
3.143145e-01
3.099757e-01
3.060144e-01
3.028003e-01
3.023051e-01
3.085130e-01
3.119801e-01
3.206932e-01
3.236058e-01
3.243142e-01
3.103467e-01
1.272926e+00
4.835086e-01
4.154168e-01
3.587805e-01
3.369814e-01
3.306044e-01
3.262840e-01
3.219969e-01
3.172013e-01
3.128487e-01
3.094017e-01
3.088449e-01
3.143458e-01
3.193819e-01
3.281397e-01
3.309779e-01
3.319754e-01
3.195184e-01
1.234329e+00
4.629983e-01
4.136556e-01
3.667345e-01
3.465591e-01
3.410781e-01
3.365712e-01
3.323089e-01
3.282671e-01
3.242730e-01
3.207241e-01
3.194261e-01
3.252548e-01
3.298999e-01
3.385697e-01
3.403163e-01
3.414455e-01
3.295459e-01
1.200822e+00
4.522229e-01
4.134344e-01
3.679840e-01
3.524637e-01
3.471474e-01
3.437827e-01
3.406191e-01
3.369756e-01
3.334969e-01
3.306350e-01
3.304447e-01
3.367219e-01
3.387266e-01
3.446171e-01
3.454646e-01
3.460831e-01
3.363813e-01
1.162970e+00
4.503289e-01
4.113719e-01
3.691109e-01
3.547347e-01
3.516579e-01
3.492086e-01
3.461023e-01
3.431016e-01
3.402926e-01
3.375441e-01
3.371817e-01
3.431830e-01
3.448249e-01
3.495251e-01
3.475697e-01
3.489727e-01
3.413499e-01
1.127319e+00
4.469310e-01
4.104502e-01
3.703863e-01
3.571359e-01
3.539447e-01
3.517962e-01
3.500075e-01
3.479449e-01
3.449367e-01
3.425022e-01
3.424706e-01
3.482271e-01
3.499071e-01
3.512522e-01
3.485960e-01
3.498405e-01
3.442365e-01
1.092885e+00
4.446615e-01
4.094715e-01
3.706672e-01
3.575496e-01
3.543648e-01
3.527369e-01
3.511487e-01
3.497597e-01
3.488476e-01
3.479931e-01
3.484335e-01
3.543900e-01
3.514863e-01
3.517501e-01
3.487039e-01
3.500751e-01
3.443592e-01
1.059467e+00
4.413335e-01
4.082671e-01
3.716442e-01
3.591349e-01
3.562030e-01
3.545346e-01
3.532367e-01
3.520513e-01
3.506185e-01
3.499254e-01
3.514682e-01
3.566045e-01
3.536250e-01
3.534025e-01
3.502585e-01
3.517636e-01
3.460256e-01
1.027846e+00
4.370993e-01
4.068312e-01
3.751570e-01
3.627039e-01
3.594958e-01
3.579393e-01
3.566229e-01
3.555051e-01
3.543899e-01
3.537009e-01
3.551968e-01
3.602941e-01
3.570465e-01
3.578973e-01
3.559659e-01
3.576174e-01
3.502237e-01
1.000508e+00
4.341219e-01
4.073131e-01
3.792383e-01
3.693280e-01
3.664572e-01
3.652443e-01
3.638528e-01
3.622743e-01
3.608316e-01
3.602797e-01
3.618735e-01
3.669061e-01
3.645535e-01
3.658841e-01
3.629370e-01
3.647106e-01
3.582395e-01
9.813958e-01
4.287305e-01
4.060148e-01
3.798490e-01
3.702165e-01
3.704284e-01
3.705992e-01
3.699731e-01
3.685819e-01
3.670793e-01
3.662169e-01
3.677078e-01
3.727803e-01
3.710530e-01
3.679873e-01
3.612188e-01
3.627389e-01
3.611600e-01
1.008507e+00
4.221059e-01
3.922122e-01
3.680659e-01
3.599595e-01
3.607534e-01
3.619416e-01
3.620234e-01
3.612101e-01
3.604406e-01
3.602829e-01
3.623069e-01
3.672539e-01
3.631749e-01
3.591398e-01
3.520202e-01
3.524408e-01
3.502522e-01
1.104368e+00
4.266006e-01
3.853317e-01
3.633473e-01
3.573574e-01
3.563091e-01
3.553126e-01
3.541379e-01
3.528838e-01
3.517851e-01
3.509505e-01
3.530308e-01
3.587763e-01
3.554575e-01
3.550952e-01
3.498952e-01
3.476557e-01
3.556164e-01
1.450869e+00
4.865574e-01
4.048257e-01
3.858949e-01
3.771915e-01
3.748833e-01
3.732572e-01
3.719002e-01
3.705189e-01
3.694204e-01
3.690854e-01
3.713152e-01
3.764429e-01
3.698479e-01
3.700066e-01
3.681163e-01
3.773097e-01
3.874146e-01
1.507079e+00
4.960782e-01
3.918294e-01
3.734819e-01
3.655384e-01
3.633240e-01
3.615554e-01
3.600061e-01
3.585361e-01
3.571398e-01
3.561669e-01
3.580544e-01
3.640606e-01
3.575950e-01
3.563188e-01
3.549647e-01
3.623390e-01
3.795823e-01
1.526264e+00
4.946848e-01
3.794648e-01
3.635757e-01
3.565456e-01
3.543405e-01
3.527086e-01
3.511048e-01
3.498689e-01
3.489729e-01
3.480489e-01
3.500172e-01
3.566768e-01
3.489381e-01
3.480387e-01
3.458058e-01
3.519121e-01
3.656222e-01
1.523418e+00
4.790282e-01
3.760473e-01
3.617661e-01
3.554867e-01
3.533045e-01
3.517043e-01
3.503856e-01
3.489238e-01
3.478974e-01
3.475574e-01
3.501699e-01
3.558975e-01
3.485865e-01
3.474741e-01
3.447765e-01
3.501815e-01
3.637077e-01
1.519486e+00
4.660834e-01
3.760801e-01
3.630157e-01
3.574117e-01
3.556525e-01
3.541321e-01
3.529435e-01
3.516701e-01
3.501237e-01
3.494199e-01
3.520116e-01
3.579216e-01
3.501327e-01
3.486056e-01
3.455407e-01
3.504556e-01
3.641805e-01
1.520075e+00
4.739335e-01
3.858035e-01
3.759682e-01
3.681290e-01
3.664111e-01
3.650304e-01
3.638812e-01
3.620067e-01
3.599074e-01
3.583378e-01
3.607105e-01
3.655617e-01
3.572962e-01
3.546965e-01
3.520046e-01
3.565900e-01
3.712546e-01
1.520524e+00
5.133067e-01
4.283018e-01
4.059783e-01
4.008088e-01
3.989888e-01
3.972388e-01
3.946591e-01
3.904241e-01
3.825735e-01
3.764880e-01
3.751165e-01
3.813811e-01
3.729344e-01
3.740376e-01
3.649301e-01
3.753409e-01
3.923686e-01
1.557208e+00
5.631876e-01
4.869083e-01
4.515453e-01
4.364492e-01
4.374481e-01
4.381917e-01
4.385536e-01
4.374369e-01
4.575298e-01
4.818190e-01
5.022992e-01
4.962847e-01
4.726412e-01
4.451308e-01
4.423119e-01
4.699770e-01
5.267399e-01
1.177543e+00
1.371646e+00
1.112485e+00
1.094911e+00
1.121437e+00
1.145901e+00
1.166601e+00
1.195112e+00
1.251076e+00
1.373716e+00
1.457391e+00
1.489225e+00
1.489310e+00
1.488915e+00
1.480832e+00
1.495183e+00
1.486678e+00
1.515973e+00
-1.104527e-01
2.712091e-01
3.298679e-01
2.790835e-01
2.845557e-01
2.881983e-01
2.921643e-01
2.961988e-01
3.001075e-01
3.038409e-01
3.074611e-01
3.110682e-01
3.147100e-01
3.184287e-01
3.222195e-01
3.260312e-01
3.299455e-01
3.338976e-01
3.378878e-01
3.420619e-01
3.460654e-01
3.498188e-01
3.534787e-01
3.567375e-01
3.598384e-01
3.630127e-01
3.664928e-01
3.700259e-01
3.736480e-01
3.771841e-01
3.805603e-01
3.840780e-01
3.876820e-01
3.913178e-01
3.948733e-01
3.982392e-01
4.015705e-01
4.048949e-01
4.082243e-01
4.116151e-01
4.150682e-01
4.185762e-01
4.220899e-01
4.258668e-01
4.301547e-01
4.349023e-01
4.396955e-01
4.435553e-01
4.469262e-01
4.502634e-01
4.540348e-01
4.575291e-01
4.609739e-01
4.640655e-01
4.668235e-01
4.695653e-01
4.721316e-01
4.747792e-01
4.782241e-01
4.824483e-01
4.866650e-01
4.908417e-01
4.951218e-01
4.994205e-01
5.039147e-01
5.087553e-01
5.142897e-01
5.204535e-01
5.268803e-01
5.329801e-01
5.391414e-01
5.451505e-01
5.502317e-01
5.561288e-01
5.630471e-01
5.702449e-01
5.778410e-01
5.857385e-01
5.949567e-01
6.042137e-01
6.130318e-01
6.220387e-01
6.310895e-01
6.404507e-01
6.502650e-01
6.615590e-01
6.733378e-01
6.848821e-01
6.963408e-01
7.074746e-01
7.204088e-01
7.335458e-01
7.464210e-01
7.586615e-01
7.689868e-01
7.795456e-01
7.911732e-01
8.026879e-01
8.126376e-01
8.226614e-01
8.334618e-01
8.444837e-01
8.553158e-01
8.672421e-01
8.791724e-01
8.900043e-01
9.004772e-01
9.099093e-01
9.182578e-01
9.259956e-01
9.316985e-01
9.369830e-01
9.407240e-01
9.430743e-01
9.462659e-01
9.499583e-01
9.535862e-01
9.573827e-01
9.594152e-01
9.593780e-01
9.575086e-01
9.538072e-01
9.486922e-01
9.428891e-01
9.366680e-01
9.285645e-01
9.186593e-01
9.085880e-01
8.970587e-01
8.874701e-01
8.798304e-01
8.728090e-01
8.696327e-01
8.687839e-01
8.675509e-01
8.649565e-01
8.632959e-01
8.606158e-01
8.584584e-01
8.567744e-01
8.551765e-01
8.536583e-01
8.516476e-01
8.486966e-01
8.492639e-01
8.474271e-01
8.470683e-01
8.450082e-01
8.426139e-01
8.391778e-01
8.376168e-01
8.373643e-01
8.358598e-01
8.326837e-01
8.306273e-01
8.304075e-01
8.308865e-01
8.311949e-01
8.339214e-01
8.351994e-01
8.362376e-01
8.381341e-01
8.418319e-01
8.485175e-01
8.564498e-01
8.643427e-01
8.711390e-01
8.777169e-01
8.864691e-01
8.903084e-01
8.929400e-01
8.987823e-01
9.085858e-01
9.258323e-01
8.977544e-01
8.744440e-01
9.169098e-01
9.032772e-01
9.340352e-01
1.059787e+00
2.714849e-01
1.123570e-01
5.868376e-02
9.841120e-02
1.058737e-01
1.111496e-01
1.175325e-01
1.238842e-01
1.299165e-01
1.360269e-01
1.422160e-01
1.486326e-01
1.552736e-01
1.619772e-01
1.687155e-01
1.755559e-01
1.824531e-01
1.893511e-01
1.960603e-01
2.027408e-01
2.095164e-01
2.162455e-01
2.228925e-01
2.296135e-01
2.361926e-01
2.426355e-01
2.490081e-01
2.554306e-01
2.618089e-01
2.679555e-01
2.732526e-01
2.784755e-01
2.838140e-01
2.890079e-01
2.942741e-01
2.996458e-01
3.048354e-01
3.099552e-01
3.151363e-01
3.203485e-01
3.255337e-01
3.309842e-01
3.365731e-01
3.423356e-01
3.482671e-01
3.543661e-01
3.608704e-01
3.673827e-01
3.739291e-01
3.806205e-01
3.874794e-01
3.944375e-01
4.015710e-01
4.090626e-01
4.166996e-01
4.247825e-01
4.327287e-01
4.404775e-01
4.477573e-01
4.554682e-01
4.640711e-01
4.730311e-01
4.819840e-01
4.912489e-01
5.006537e-01
5.092987e-01
5.178264e-01
5.265115e-01
5.354271e-01
5.455515e-01
5.558396e-01
5.673966e-01
5.792089e-01
5.907238e-01
6.026394e-01
6.150365e-01
6.275713e-01
6.404313e-01
6.532671e-01
6.657284e-01
6.776184e-01
6.894003e-01
7.011781e-01
7.129275e-01
7.241359e-01
7.358260e-01
7.493563e-01
7.636342e-01
7.781198e-01
7.909168e-01
8.035565e-01
8.183512e-01
8.338093e-01
8.496590e-01
8.657784e-01
8.837823e-01
9.024902e-01
9.213348e-01
9.406758e-01
9.610417e-01
9.816625e-01
1.001202e+00
1.021422e+00
1.041933e+00
1.062137e+00
1.082729e+00
1.103654e+00
1.123995e+00
1.145216e+00
1.166104e+00
1.185703e+00
1.204997e+00
1.223786e+00
1.242676e+00
1.260951e+00
1.279206e+00
1.297868e+00
1.318510e+00
1.338825e+00
1.357674e+00
1.374447e+00
1.390841e+00
1.407106e+00
1.424401e+00
1.444991e+00
1.465746e+00
1.486160e+00
1.505216e+00
1.520675e+00
1.530388e+00
1.537200e+00
1.539596e+00
1.540446e+00
1.538967e+00
1.536889e+00
1.538355e+00
1.539404e+00
1.539981e+00
1.535567e+00
1.533660e+00
1.531191e+00
1.525345e+00
1.519971e+00
1.517515e+00
1.516043e+00
1.513100e+00
1.510194e+00
1.507568e+00
1.503431e+00
1.499353e+00
1.494633e+00
1.489233e+00
1.485172e+00
1.480715e+00
1.477873e+00
1.477203e+00
1.477037e+00
1.476527e+00
1.474276e+00
1.467678e+00
1.461829e+00
1.452385e+00
1.440995e+00
1.427597e+00
1.412622e+00
1.398026e+00
1.384031e+00
1.370517e+00
1.357012e+00
1.344234e+00
1.332701e+00
1.326530e+00
1.330818e+00
1.370643e+00
1.494416e+00
1.535635e+00
1.527312e+00
1.438609e+00
1.509670e+00
1.864141e+00
3.511568e-01
8.880092e-02
1.549845e-01
1.688191e-01
1.698242e-01
1.751677e-01
1.813536e-01
1.875726e-01
1.938303e-01
2.001232e-01
2.064455e-01
2.128089e-01
2.191038e-01
2.253793e-01
2.319824e-01
2.387625e-01
2.458652e-01
2.531588e-01
2.603586e-01
2.675573e-01
2.748252e-01
2.822344e-01
2.897944e-01
2.970796e-01
3.043817e-01
3.115437e-01
3.187473e-01
3.260232e-01
3.335435e-01
3.411267e-01
3.487633e-01
3.566559e-01
3.648184e-01
3.731294e-01
3.812963e-01
3.892532e-01
3.972190e-01
4.053405e-01
4.130141e-01
4.204486e-01
4.280022e-01
4.362812e-01
4.453563e-01
4.543753e-01
4.638607e-01
4.730418e-01
4.824681e-01
4.916937e-01
5.007929e-01
5.097972e-01
5.187640e-01
5.279639e-01
5.372999e-01
5.466427e-01
5.559738e-01
5.656487e-01
5.754385e-01
5.858318e-01
5.965307e-01
6.085172e-01
6.202695e-01
6.323290e-01
6.449765e-01
6.580615e-01
6.713346e-01
6.847127e-01
6.986215e-01
7.133704e-01
7.289433e-01
7.468102e-01
7.686168e-01
7.909386e-01
8.130548e-01
8.342993e-01
8.563724e-01
8.781194e-01
9.002590e-01
9.229127e-01
9.459325e-01
9.713156e-01
9.964875e-01
1.020999e+00
1.044933e+00
1.068998e+00
1.093315e+00
1.117302e+00
1.140689e+00
1.163845e+00
1.187752e+00
1.212151e+00
1.236132e+00
1.261019e+00
1.287009e+00
1.313892e+00
1.341068e+00
1.368199e+00
1.394607e+00
1.420174e+00
1.445098e+00
1.470240e+00
1.496586e+00
1.522978e+00
1.548517e+00
1.572200e+00
1.595109e+00
1.618524e+00
1.641080e+00
1.662602e+00
1.684102e+00
1.706201e+00
1.729464e+00
1.753663e+00
1.776865e+00
1.802717e+00
1.829653e+00
1.856911e+00
1.885007e+00
1.913923e+00
1.942332e+00
1.969714e+00
1.996188e+00
2.022805e+00
2.047846e+00
2.071866e+00
2.095759e+00
2.118385e+00
2.140276e+00
2.161101e+00
2.178833e+00
2.191728e+00
2.198315e+00
2.199597e+00
2.197549e+00
2.192303e+00
2.187042e+00
2.182232e+00
2.178751e+00
2.176152e+00
2.175126e+00
2.176563e+00
2.179754e+00
2.182694e+00
2.190103e+00
2.198626e+00
2.205643e+00
2.212406e+00
2.219379e+00
2.228780e+00
2.237844e+00
2.245142e+00
2.247311e+00
2.247428e+00
2.250117e+00
2.254809e+00
2.256061e+00
2.258141e+00
2.259383e+00
2.257736e+00
2.251668e+00
2.243154e+00
2.233686e+00
2.221738e+00
2.203992e+00
2.180708e+00
2.153937e+00
2.126794e+00
2.099684e+00
2.067981e+00
2.032746e+00
1.998075e+00
1.965014e+00
1.934419e+00
1.916979e+00
1.997032e+00
2.161833e+00
2.244330e+00
2.214639e+00
1.979786e+00
2.038425e+00
2.399565e+00
2.916875e-01
1.381633e-01
1.796512e-01
1.967227e-01
2.008590e-01
2.059021e-01
2.122288e-01
2.187535e-01
2.253373e-01
2.320142e-01
2.387110e-01
2.454852e-01
2.522181e-01
2.589263e-01
2.657464e-01
2.728680e-01
2.800813e-01
2.874310e-01
2.947411e-01
3.020165e-01
3.094262e-01
3.172088e-01
3.254516e-01
3.338251e-01
3.423223e-01
3.513697e-01
3.605058e-01
3.694319e-01
3.782801e-01
3.874994e-01
3.968447e-01
4.068568e-01
4.172154e-01
4.278625e-01
4.383720e-01
4.490219e-01
4.595572e-01
4.701471e-01
4.810521e-01
4.916491e-01
5.024685e-01
5.132597e-01
5.241652e-01
5.358698e-01
5.476031e-01
5.591583e-01
5.707284e-01
5.822078e-01
5.937754e-01
6.050702e-01
6.158595e-01
6.268005e-01
6.375007e-01
6.487269e-01
6.602841e-01
6.717178e-01
6.836489e-01
6.971440e-01
7.111205e-01
7.256189e-01
7.413625e-01
7.592371e-01
7.801671e-01
8.017008e-01
8.249900e-01
8.507118e-01
8.775898e-01
9.057182e-01
9.335435e-01
9.628523e-01
9.917161e-01
1.020190e+00
1.047572e+00
1.075492e+00
1.104011e+00
1.132873e+00
1.163671e+00
1.195430e+00
1.228130e+00
1.261133e+00
1.293885e+00
1.325883e+00
1.357976e+00
1.390430e+00
1.423876e+00
1.456966e+00
1.489605e+00
1.521882e+00
1.553547e+00
1.586601e+00
1.619406e+00
1.651636e+00
1.683985e+00
1.717940e+00
1.753653e+00
1.788286e+00
1.820880e+00
1.853594e+00
1.885336e+00
1.918899e+00
1.954021e+00
1.987812e+00
2.020260e+00
2.050003e+00
2.076123e+00
2.101904e+00
2.127988e+00
2.155089e+00
2.181796e+00
2.208930e+00
2.238590e+00
2.272337e+00
2.307743e+00
2.344428e+00
2.380087e+00
2.416312e+00
2.451905e+00
2.488872e+00
2.528833e+00
2.568434e+00
2.609117e+00
2.648144e+00
2.682254e+00
2.709324e+00
2.734563e+00
2.757578e+00
2.779012e+00
2.803947e+00
2.828980e+00
2.854484e+00
2.874014e+00
2.885924e+00
2.891824e+00
2.894836e+00
2.896399e+00
2.898269e+00
2.898060e+00
2.895994e+00
2.892566e+00
2.892201e+00
2.889913e+00
2.887055e+00
2.886967e+00
2.890691e+00
2.895915e+00
2.905056e+00
2.914681e+00
2.923803e+00
2.934418e+00
2.945182e+00
2.953033e+00
2.962261e+00
2.973174e+00
2.982483e+00
2.990808e+00
2.997961e+00
3.004731e+00
3.010543e+00
3.013164e+00
3.013312e+00
3.010784e+00
3.008307e+00
3.004174e+00
2.995807e+00
2.982643e+00
2.961862e+00
2.933579e+00
2.900751e+00
2.869757e+00
2.839954e+00
2.810804e+00
2.780756e+00
2.767854e+00
2.825930e+00
2.939701e+00
2.913341e+00
2.714596e+00
2.387545e+00
2.354018e+00
2.789957e+00
2.795068e-01
1.515154e-01
1.928909e-01
2.165401e-01
2.205154e-01
2.258088e-01
2.317105e-01
2.376265e-01
2.435967e-01
2.496220e-01
2.556933e-01
2.618380e-01
2.679375e-01
2.743196e-01
2.814649e-01
2.890419e-01
2.966659e-01
3.043264e-01
3.122437e-01
3.204023e-01
3.287520e-01
3.373659e-01
3.461472e-01
3.555429e-01
3.646305e-01
3.738580e-01
3.831786e-01
3.927506e-01
4.029789e-01
4.139898e-01
4.246550e-01
4.354162e-01
4.464363e-01
4.577293e-01
4.690707e-01
4.803529e-01
4.915796e-01
5.032979e-01
5.149690e-01
5.268254e-01
5.386606e-01
5.505794e-01
5.623348e-01
5.740205e-01
5.859898e-01
5.980306e-01
6.100415e-01
6.213462e-01
6.324188e-01
6.442468e-01
6.572111e-01
6.703759e-01
6.841940e-01
6.982340e-01
7.130253e-01
7.296856e-01
7.478203e-01
7.661922e-01
7.875156e-01
8.104230e-01
8.344012e-01
8.614982e-01
8.896005e-01
9.194126e-01
9.503993e-01
9.819732e-01
1.013945e+00
1.045119e+00
1.075792e+00
1.106113e+00
1.136666e+00
1.167427e+00
1.199183e+00
1.233288e+00
1.268285e+00
1.302723e+00
1.338028e+00
1.373845e+00
1.410368e+00
1.447777e+00
1.485671e+00
1.523054e+00
1.560010e+00
1.597254e+00
1.634507e+00
1.671724e+00
1.708652e+00
1.744571e+00
1.779372e+00
1.817154e+00
1.856035e+00
1.892450e+00
1.929205e+00
1.966960e+00
2.003693e+00
2.039364e+00
2.075814e+00
2.112416e+00
2.146148e+00
2.179185e+00
2.213851e+00
2.247533e+00
2.278698e+00
2.307545e+00
2.334556e+00
2.362057e+00
2.390818e+00
2.421327e+00
2.452227e+00
2.484512e+00
2.517386e+00
2.552863e+00
2.591804e+00
2.633707e+00
2.677882e+00
2.725530e+00
2.772814e+00
2.820675e+00
2.870352e+00
2.918701e+00
2.963809e+00
3.006331e+00
3.045694e+00
3.077932e+00
3.105826e+00
3.132358e+00
3.162440e+00
3.195979e+00
3.228935e+00
3.258898e+00
3.287387e+00
3.307356e+00
3.319359e+00
3.325017e+00
3.325698e+00
3.324764e+00
3.322616e+00
3.321814e+00
3.321220e+00
3.316941e+00
3.309580e+00
3.305663e+00
3.304202e+00
3.306761e+00
3.315330e+00
3.326125e+00
3.338330e+00
3.350391e+00
3.361357e+00
3.368315e+00
3.373791e+00
3.374954e+00
3.376691e+00
3.383653e+00
3.393412e+00
3.401520e+00
3.409358e+00
3.414939e+00
3.416206e+00
3.413907e+00
3.409753e+00
3.400602e+00
3.387564e+00
3.375588e+00
3.366855e+00
3.354842e+00
3.340195e+00
3.321647e+00
3.295480e+00
3.268097e+00
3.239024e+00
3.209116e+00
3.187547e+00
3.223780e+00
3.304444e+00
3.211724e+00
2.944219e+00
2.593041e+00
2.528496e+00
2.994937e+00
2.700056e-01
1.723699e-01
2.147469e-01
2.351584e-01
2.375994e-01
2.422145e-01
2.477665e-01
2.534478e-01
2.592271e-01
2.651833e-01
2.712766e-01
2.778374e-01
2.846862e-01
2.917101e-01
2.990329e-01
3.068579e-01
3.150762e-01
3.234229e-01
3.321652e-01
3.410902e-01
3.501101e-01
3.592468e-01
3.686176e-01
3.779619e-01
3.870817e-01
3.968738e-01
4.067728e-01
4.166404e-01
4.268026e-01
4.372164e-01
4.478315e-01
4.587455e-01
4.698433e-01
4.809279e-01
4.921193e-01
5.035773e-01
5.150393e-01
5.265722e-01
5.380545e-01
5.500078e-01
5.617250e-01
5.735860e-01
5.856751e-01
5.981472e-01
6.110843e-01
6.244732e-01
6.377352e-01
6.523384e-01
6.681909e-01
6.848064e-01
7.028618e-01
7.222067e-01
7.412904e-01
7.603875e-01
7.811330e-01
8.040286e-01
8.273129e-01
8.517571e-01
8.796065e-01
9.080095e-01
9.387310e-01
9.725386e-01
1.005847e+00
1.038255e+00
1.070826e+00
1.102177e+00
1.133632e+00
1.166127e+00
1.198922e+00
1.232658e+00
1.266720e+00
1.302374e+00
1.337823e+00
1.373929e+00
1.410779e+00
1.449161e+00
1.487576e+00
1.527118e+00
1.567344e+00
1.608348e+00
1.648764e+00
1.687519e+00
1.725508e+00
1.763667e+00
1.801341e+00
1.837765e+00
1.877698e+00
1.917168e+00
1.956548e+00
1.997268e+00
2.036979e+00
2.075546e+00
2.113352e+00
2.149850e+00
2.184573e+00
2.216567e+00
2.250035e+00
2.285430e+00
2.322737e+00
2.360158e+00
2.398037e+00
2.435517e+00
2.472278e+00
2.509880e+00
2.546077e+00
2.581993e+00
2.617711e+00
2.652140e+00
2.687053e+00
2.722982e+00
2.763387e+00
2.804787e+00
2.851259e+00
2.898613e+00
2.945695e+00
2.994308e+00
3.051772e+00
3.112333e+00
3.172772e+00
3.231977e+00
3.286777e+00
3.332081e+00
3.367522e+00
3.394707e+00
3.419856e+00
3.446796e+00
3.478800e+00
3.516582e+00
3.551872e+00
3.583587e+00
3.612097e+00
3.636361e+00
3.653074e+00
3.665741e+00
3.671798e+00
3.674510e+00
3.676148e+00
3.676720e+00
3.675744e+00
3.676237e+00
3.671439e+00
3.663160e+00
3.659603e+00
3.660475e+00
3.664900e+00
3.674331e+00
3.689439e+00
3.700954e+00
3.710051e+00
3.719462e+00
3.726893e+00
3.731860e+00
3.732136e+00
3.733376e+00
3.737891e+00
3.743526e+00
3.749131e+00
3.754439e+00
3.756322e+00
3.753199e+00
3.740228e+00
3.721345e+00
3.698276e+00
3.677162e+00
3.660195e+00
3.644886e+00
3.628525e+00
3.605189e+00
3.577475e+00
3.548501e+00
3.518000e+00
3.484223e+00
3.455786e+00
3.474102e+00
3.557955e+00
3.447429e+00
3.125730e+00
2.730725e+00
2.633858e+00
3.122800e+00
2.661850e-01
1.958090e-01
2.417943e-01
2.558493e-01
2.582124e-01
2.631902e-01
2.688281e-01
2.750292e-01
2.815769e-01
2.884334e-01
2.953644e-01
3.025602e-01
3.100353e-01
3.179691e-01
3.261936e-01
3.346045e-01
3.431379e-01
3.518807e-01
3.605181e-01
3.692210e-01
3.778182e-01
3.865107e-01
3.951399e-01
4.036889e-01
4.122459e-01
4.209143e-01
4.298991e-01
4.399065e-01
4.505082e-01
4.613044e-01
4.723353e-01
4.836447e-01
4.953650e-01
5.073121e-01
5.193684e-01
5.317154e-01
5.443620e-01
5.572908e-01
5.704288e-01
5.841425e-01
5.978101e-01
6.113100e-01
6.250991e-01
6.392671e-01
6.544280e-01
6.702025e-01
6.883739e-01
7.076032e-01
7.269448e-01
7.465313e-01
7.680383e-01
7.908016e-01
8.161718e-01
8.419260e-01
8.691003e-01
8.967965e-01
9.257569e-01
9.565043e-01
9.883841e-01
1.021003e+00
1.053438e+00
1.085723e+00
1.119179e+00
1.153026e+00
1.184341e+00
1.216909e+00
1.250867e+00
1.286120e+00
1.322285e+00
1.358455e+00
1.396800e+00
1.436639e+00
1.475682e+00
1.514799e+00
1.554010e+00
1.593768e+00
1.633097e+00
1.673518e+00
1.713856e+00
1.753480e+00
1.791842e+00
1.829731e+00
1.867529e+00
1.906760e+00
1.947125e+00
1.988098e+00
2.029506e+00
2.072078e+00
2.113649e+00
2.154571e+00
2.193645e+00
2.232419e+00
2.270498e+00
2.308119e+00
2.345367e+00
2.382534e+00
2.419245e+00
2.456324e+00
2.493748e+00
2.531455e+00
2.570550e+00
2.610430e+00
2.650664e+00
2.692885e+00
2.736769e+00
2.784511e+00
2.833303e+00
2.883609e+00
2.932827e+00
2.980748e+00
3.026430e+00
3.073959e+00
3.122355e+00
3.173829e+00
3.229850e+00
3.291742e+00
3.361559e+00
3.432126e+00
3.499716e+00
3.563089e+00
3.618504e+00
3.666412e+00
3.705472e+00
3.736380e+00
3.764426e+00
3.794910e+00
3.828728e+00
3.865309e+00
3.898265e+00
3.927396e+00
3.954633e+00
3.977875e+00
3.998510e+00
4.018043e+00
4.031099e+00
4.039144e+00
4.041491e+00
4.042400e+00
4.043301e+00
4.041470e+00
4.038732e+00
4.037578e+00
4.038396e+00
4.043159e+00
4.051299e+00
4.061212e+00
4.072809e+00
4.083428e+00
4.092716e+00
4.098752e+00
4.101418e+00
4.101067e+00
4.094866e+00
4.089400e+00
4.087128e+00
4.085644e+00
4.080079e+00
4.074283e+00
4.069250e+00
4.060240e+00
4.047863e+00
4.030892e+00
4.009002e+00
3.987219e+00
3.967236e+00
3.949444e+00
3.929811e+00
3.906987e+00
3.875323e+00
3.838340e+00
3.797188e+00
3.756244e+00
3.717335e+00
3.732575e+00
3.837834e+00
3.686370e+00
3.323806e+00
2.854262e+00
2.711780e+00
3.224507e+00
2.526604e-01
2.110815e-01
2.716382e-01
2.808557e-01
2.836329e-01
2.896566e-01
2.961320e-01
3.026280e-01
3.094888e-01
3.165396e-01
3.235014e-01
3.309112e-01
3.386372e-01
3.465276e-01
3.545875e-01
3.626182e-01
3.709027e-01
3.793169e-01
3.874633e-01
3.959261e-01
4.044034e-01
4.131943e-01
4.227843e-01
4.325995e-01
4.428895e-01
4.535784e-01
4.645576e-01
4.757830e-01
4.868825e-01
4.979928e-01
5.092779e-01
5.208105e-01
5.326857e-01
5.448753e-01
5.579402e-01
5.720573e-01
5.866953e-01
6.016379e-01
6.169103e-01
6.327731e-01
6.489292e-01
6.672182e-01
6.855209e-01
7.035232e-01
7.211016e-01
7.424516e-01
7.643146e-01
7.862440e-01
8.096510e-01
8.346743e-01
8.612897e-01
8.879394e-01
9.150130e-01
9.439976e-01
9.734914e-01
1.004021e+00
1.034973e+00
1.067188e+00
1.100630e+00
1.133996e+00
1.167054e+00
1.199917e+00
1.231727e+00
1.263551e+00
1.297063e+00
1.333642e+00
1.371870e+00
1.411104e+00
1.450744e+00
1.491188e+00
1.531306e+00
1.570407e+00
1.608890e+00
1.648199e+00
1.686797e+00
1.725554e+00
1.763590e+00
1.800907e+00
1.839344e+00
1.877512e+00
1.914627e+00
1.953726e+00
1.996708e+00
2.041120e+00
2.084750e+00
2.127910e+00
2.173084e+00
2.217031e+00
2.260236e+00
2.302375e+00
2.342878e+00
2.381980e+00
2.419980e+00
2.459156e+00
2.501031e+00
2.541612e+00
2.581494e+00
2.619704e+00
2.659350e+00
2.698412e+00
2.738449e+00
2.779577e+00
2.825318e+00
2.876139e+00
2.932270e+00
2.992687e+00
3.056710e+00
3.121767e+00
3.184894e+00
3.246705e+00
3.305829e+00
3.364437e+00
3.422131e+00
3.480070e+00
3.539409e+00
3.603501e+00
3.671106e+00
3.741363e+00
3.807107e+00
3.870706e+00
3.926355e+00
3.973949e+00
4.013204e+00
4.046328e+00
4.075197e+00
4.104088e+00
4.136785e+00
4.173972e+00
4.210561e+00
4.246452e+00
4.280360e+00
4.309265e+00
4.332469e+00
4.352870e+00
4.376940e+00
4.400482e+00
4.413467e+00
4.420453e+00
4.421205e+00
4.421040e+00
4.422911e+00
4.425784e+00
4.427045e+00
4.431635e+00
4.438503e+00
4.445370e+00
4.455911e+00
4.462678e+00
4.466724e+00
4.468449e+00
4.466050e+00
4.460289e+00
4.448326e+00
4.435810e+00
4.424540e+00
4.410358e+00
4.397272e+00
4.383529e+00
4.368257e+00
4.349127e+00
4.332186e+00
4.317854e+00
4.297916e+00
4.274346e+00
4.250522e+00
4.225696e+00
4.197763e+00
4.167464e+00
4.129850e+00
4.090156e+00
4.047317e+00
3.999428e+00
3.955582e+00
3.970636e+00
4.090818e+00
3.901617e+00
3.522701e+00
2.988548e+00
2.768390e+00
3.322149e+00
2.424753e-01
2.187641e-01
2.945390e-01
3.034059e-01
3.057580e-01
3.121181e-01
3.190697e-01
3.260150e-01
3.331041e-01
3.404038e-01
3.480420e-01
3.564064e-01
3.650097e-01
3.736205e-01
3.816546e-01
3.905585e-01
3.997050e-01
4.090485e-01
4.182588e-01
4.276299e-01
4.372294e-01
4.471693e-01
4.573634e-01
4.677336e-01
4.786965e-01
4.900590e-01
5.016663e-01
5.134320e-01
5.258746e-01
5.388185e-01
5.517954e-01
5.649491e-01
5.789336e-01
5.932217e-01
6.080215e-01
6.232965e-01
6.406671e-01
6.590104e-01
6.784418e-01
6.988576e-01
7.204236e-01
7.418450e-01
7.632734e-01
7.847920e-01
8.060389e-01
8.302920e-01
8.573317e-01
8.847951e-01
9.125112e-01
9.404735e-01
9.681644e-01
9.959639e-01
1.025109e+00
1.055399e+00
1.086312e+00
1.117743e+00
1.149973e+00
1.182303e+00
1.213729e+00
1.246305e+00
1.280194e+00
1.314910e+00
1.350531e+00
1.385157e+00
1.422261e+00
1.459439e+00
1.496658e+00
1.534703e+00
1.574470e+00
1.613578e+00
1.652308e+00
1.690943e+00
1.729129e+00
1.767258e+00
1.805243e+00
1.843179e+00
1.881070e+00
1.917974e+00
1.956589e+00
1.996404e+00
2.039799e+00
2.084821e+00
2.132636e+00
2.179028e+00
2.224385e+00
2.269742e+00
2.314415e+00
2.357876e+00
2.400375e+00
2.442113e+00
2.482902e+00
2.522965e+00
2.563440e+00
2.603014e+00
2.641727e+00
2.683728e+00
2.728364e+00
2.772454e+00
2.815479e+00
2.865172e+00
2.916623e+00
2.969854e+00
3.024144e+00
3.079752e+00
3.139049e+00
3.203290e+00
3.273825e+00
3.345445e+00
3.417363e+00
3.489807e+00
3.559367e+00
3.630715e+00
3.699204e+00
3.763045e+00
3.826091e+00
3.889026e+00
3.952374e+00
4.016752e+00
4.075915e+00
4.132897e+00
4.182696e+00
4.226357e+00
4.265658e+00
4.302950e+00
4.338600e+00
4.375130e+00
4.413824e+00
4.454973e+00
4.495399e+00
4.533573e+00
4.568653e+00
4.599727e+00
4.628583e+00
4.653434e+00
4.679483e+00
4.703433e+00
4.720857e+00
4.729720e+00
4.733220e+00
4.732547e+00
4.734690e+00
4.742975e+00
4.752328e+00
4.757610e+00
4.758690e+00
4.757557e+00
4.758937e+00
4.758033e+00
4.755845e+00
4.753479e+00
4.751923e+00
4.747430e+00
4.739014e+00
4.726274e+00
4.714214e+00
4.700124e+00
4.685399e+00
4.667945e+00
4.649781e+00
4.628271e+00
4.603615e+00
4.576568e+00
4.547452e+00
4.522891e+00
4.496829e+00
4.469082e+00
4.435313e+00
4.394911e+00
4.347123e+00
4.292988e+00
4.243850e+00
4.194787e+00
4.154337e+00
4.180892e+00
4.296452e+00
4.090323e+00
3.709527e+00
3.113709e+00
2.825854e+00
3.401731e+00
2.914720e-01
2.186408e-01
3.144922e-01
3.203142e-01
3.251535e-01
3.335756e-01
3.425026e-01
3.515109e-01
3.602340e-01
3.686566e-01
3.771160e-01
3.858746e-01
3.945095e-01
4.032143e-01
4.122149e-01
4.214987e-01
4.310928e-01
4.409773e-01
4.508457e-01
4.608063e-01
4.707223e-01
4.807137e-01
4.914709e-01
5.031172e-01
5.155136e-01
5.282114e-01
5.410372e-01
5.540958e-01
5.671716e-01
5.812805e-01
5.966620e-01
6.128125e-01
6.308310e-01
6.500245e-01
6.703471e-01
6.917409e-01
7.133161e-01
7.349689e-01
7.573539e-01
7.804377e-01
8.038877e-01
8.275082e-01
8.538286e-01
8.818426e-01
9.098107e-01
9.386025e-01
9.685495e-01
9.979347e-01
1.026763e+00
1.054997e+00
1.083428e+00
1.112532e+00
1.142742e+00
1.173393e+00
1.204063e+00
1.234580e+00
1.265262e+00
1.296170e+00
1.328495e+00
1.362936e+00
1.397623e+00
1.433299e+00
1.469045e+00
1.504393e+00
1.541329e+00
1.578326e+00
1.615575e+00
1.652705e+00
1.689812e+00
1.727264e+00
1.764683e+00
1.803607e+00
1.843176e+00
1.882643e+00
1.922374e+00
1.962114e+00
2.001244e+00
2.040007e+00
2.081127e+00
2.125350e+00
2.169024e+00