/*--------------------------------*- C++ -*----------------------------------*\
| =========                 |                                                 |
| \\      /  F ield         | OpenFOAM: The Open Source CFD Toolbox           |
|  \\    /   O peration     | Version:  v2406                                 |
|   \\  /    A nd           | Website:  www.openfoam.com                      |
|    \\/     M anipulation  |                                                 |
\*---------------------------------------------------------------------------*/
FoamFile
{
    version     2.0;
    format      ascii;
    class       volScalarField;
    location    "predicted";
    object      nut;
}
// * * * * * * * * * * * * * * * * * * * * * * * * * * * * * * * * * * * * * //

dimensions      [0 2 -1 0 0 0 0];

internalField   nonuniform List<scalar>
49181
(
-5.943566e-04
2.246894e-04
2.229373e-04
3.495300e-05
-2.383808e-05
-3.171136e-05
-3.493560e-05
-3.259859e-05
-3.000324e-05
-5.661819e-06
-6.850324e-06
-6.066117e-06
-5.217715e-06
-7.912583e-06
-4.148627e-06
-4.545511e-06
3.730874e-05
-7.851768e-05
2.297540e-04
3.677879e-04
3.951891e-04
3.020525e-04
2.652708e-04
2.623871e-04
2.596533e-04
2.537510e-04
2.554184e-04
2.586280e-04
2.635295e-04
2.644522e-04
2.679065e-04
2.562815e-04
2.523458e-04
2.529898e-04
3.010644e-04
3.395761e-04
2.387203e-04
4.289587e-04
5.003015e-04
4.291144e-04
4.009426e-04
3.915332e-04
3.850941e-04
3.778997e-04
3.684961e-04
3.617185e-04
3.519847e-04
3.518046e-04
3.590743e-04
3.635488e-04
3.750422e-04
3.865050e-04
3.825923e-04
3.759763e-04
7.398721e-05
3.623238e-04
5.121378e-04
4.606882e-04
4.220133e-04
4.066995e-04
3.950746e-04
3.831245e-04
3.753195e-04
3.654257e-04
3.539395e-04
3.585575e-04
3.674379e-04
3.737644e-04
3.981132e-04
4.226992e-04
4.229283e-04
3.791297e-04
4.564193e-05
3.627475e-04
5.721985e-04
5.323203e-04
5.031652e-04
4.909019e-04
4.800207e-04
4.675633e-04
4.539077e-04
4.417058e-04
4.293799e-04
4.282910e-04
4.383537e-04
4.577542e-04
4.900156e-04
5.115080e-04
5.110633e-04
4.737072e-04
6.685901e-05
4.070110e-04
6.456171e-04
6.168716e-04
5.897024e-04
5.761487e-04
5.641314e-04
5.532674e-04
5.445545e-04
5.364894e-04
5.302089e-04
5.282871e-04
5.364867e-04
5.473266e-04
5.756768e-04
5.966357e-04
5.959640e-04
5.576356e-04
9.600937e-05
4.562748e-04
7.054631e-04
6.843964e-04
6.617543e-04
6.511203e-04
6.416676e-04
6.324483e-04
6.238277e-04
6.159782e-04
6.097333e-04
6.075709e-04
6.149730e-04
6.259929e-04
6.483994e-04
6.627706e-04
6.617150e-04
6.325928e-04
1.253480e-04
5.166417e-04
7.433520e-04
7.248095e-04
7.061721e-04
6.972150e-04
6.896105e-04
6.825673e-04
6.764611e-04
6.706232e-04
6.655801e-04
6.640220e-04
6.692823e-04
6.775664e-04
6.945611e-04
7.060755e-04
7.051993e-04
6.819087e-04
1.555672e-04
5.905788e-04
7.787059e-04
7.559982e-04
7.389126e-04
7.309418e-04
7.243106e-04
7.184677e-04
7.129114e-04
7.079200e-04
7.037438e-04
7.016935e-04
7.066506e-04
7.140339e-04
7.285029e-04
7.361781e-04
7.359841e-04
7.175949e-04
1.839325e-04
6.528661e-04
8.026837e-04
7.783263e-04
7.615970e-04
7.543886e-04
7.485854e-04
7.426120e-04
7.361573e-04
7.300699e-04
7.249179e-04
7.223555e-04
7.271533e-04
7.375230e-04
7.519806e-04
7.593766e-04
7.593449e-04
7.423289e-04
2.074694e-04
6.992183e-04
8.171796e-04
7.974947e-04
7.821083e-04
7.749562e-04
7.689817e-04
7.631697e-04
7.574114e-04
7.516804e-04
7.464600e-04
7.433111e-04
7.483195e-04
7.583384e-04
7.722172e-04
7.782237e-04
7.781802e-04
7.626366e-04
2.165678e-04
7.307211e-04
8.262404e-04
8.058826e-04
7.937586e-04
7.872297e-04
7.819361e-04
7.768284e-04
7.716428e-04
7.668111e-04
7.625262e-04
7.607415e-04
7.660561e-04
7.730368e-04
7.845848e-04
7.895950e-04
7.893714e-04
7.754069e-04
2.178984e-04
7.563774e-04
8.288472e-04
8.108906e-04
8.008136e-04
7.964917e-04
7.922227e-04
7.872492e-04
7.824634e-04
7.779968e-04
7.738134e-04
7.719784e-04
7.771434e-04
7.840086e-04
7.943853e-04
7.965710e-04
7.972365e-04
7.856416e-04
2.225455e-04
7.749938e-04
8.324610e-04
8.153340e-04
8.055291e-04
8.020880e-04
7.987521e-04
7.955939e-04
7.916885e-04
7.870493e-04
7.830200e-04
7.812290e-04
7.864975e-04
7.934860e-04
8.001867e-04
8.005252e-04
8.013447e-04
7.932977e-04
2.346349e-04
7.901002e-04
8.366732e-04
8.189488e-04
8.088238e-04
8.049064e-04
8.026365e-04
8.000756e-04
7.972739e-04
7.947560e-04
7.925543e-04
7.911976e-04
7.966051e-04
7.988758e-04
8.032738e-04
8.038806e-04
8.045070e-04
7.972756e-04
2.493531e-04
8.003720e-04
8.403026e-04
8.230833e-04
8.134865e-04
8.094544e-04
8.065425e-04
8.041328e-04
8.022292e-04
8.001259e-04
7.979639e-04
7.977685e-04
8.021186e-04
8.036405e-04
8.079384e-04
8.090094e-04
8.097987e-04
8.014583e-04
2.665835e-04
8.096467e-04
8.432724e-04
8.281187e-04
8.198790e-04
8.159628e-04
8.130608e-04
8.104665e-04
8.081716e-04
8.062193e-04
8.047891e-04
8.048903e-04
8.087998e-04
8.100895e-04
8.156540e-04
8.171586e-04
8.183550e-04
8.093833e-04
2.880087e-04
8.156857e-04
8.481659e-04
8.365323e-04
8.292377e-04
8.259142e-04
8.231795e-04
8.205056e-04
8.180858e-04
8.157720e-04
8.140429e-04
8.141798e-04
8.182015e-04
8.206555e-04
8.273195e-04
8.285028e-04
8.300396e-04
8.209606e-04
2.947538e-04
8.175215e-04
8.535821e-04
8.427792e-04
8.360384e-04
8.348660e-04
8.338122e-04
8.320682e-04
8.295776e-04
8.268059e-04
8.246446e-04
8.245435e-04
8.291212e-04
8.327489e-04
8.351931e-04
8.333994e-04
8.348390e-04
8.295138e-04
2.851565e-04
8.126445e-04
8.480001e-04
8.376957e-04
8.317522e-04
8.307864e-04
8.303825e-04
8.292839e-04
8.275974e-04
8.256208e-04
8.240135e-04
8.242679e-04
8.287168e-04
8.306375e-04
8.322253e-04
8.300159e-04
8.301937e-04
8.244436e-04
2.557628e-04
8.020208e-04
8.348980e-04
8.290139e-04
8.235541e-04
8.211209e-04
8.191136e-04
8.170239e-04
8.146032e-04
8.123450e-04
8.105586e-04
8.109246e-04
8.162172e-04
8.187495e-04
8.233043e-04
8.211181e-04
8.183549e-04
8.176197e-04
3.918553e-04
7.473808e-04
8.393616e-04
8.344837e-04
8.272433e-04
8.237482e-04
8.209822e-04
8.185127e-04
8.164656e-04
8.146892e-04
8.131521e-04
8.137937e-04
8.187716e-04
8.179031e-04
8.223629e-04
8.222828e-04
8.239988e-04
8.273117e-04
2.936474e-04
6.631745e-04
8.226038e-04
8.210233e-04
8.134937e-04
8.102006e-04
8.077839e-04
8.049717e-04
8.020888e-04
7.990659e-04
7.965403e-04
7.968892e-04
8.034543e-04
8.044818e-04
8.072225e-04
8.063852e-04
8.071803e-04
8.072176e-04
2.460303e-04
6.427052e-04
8.156619e-04
8.145022e-04
8.072781e-04
8.041030e-04
8.017217e-04
7.988395e-04
7.960788e-04
7.936858e-04
7.911984e-04
7.914855e-04
7.986399e-04
7.986940e-04
8.016360e-04
8.001638e-04
7.997317e-04
7.978534e-04
2.359853e-04
6.531814e-04
8.162089e-04
8.152569e-04
8.086220e-04
8.050768e-04
8.025618e-04
8.004694e-04
7.978660e-04
7.953314e-04
7.935133e-04
7.943583e-04
8.001924e-04
8.000675e-04
8.030339e-04
8.013213e-04
8.006291e-04
8.005491e-04
2.485503e-04
6.710633e-04
8.190380e-04
8.183840e-04
8.121493e-04
8.087246e-04
8.058882e-04
8.036773e-04
8.017813e-04
7.993870e-04
7.973616e-04
7.981755e-04
8.041137e-04
8.028170e-04
8.059864e-04
8.041652e-04
8.025786e-04
8.051370e-04
2.915707e-04
7.154415e-04
8.264655e-04
8.274876e-04
8.207242e-04
8.175244e-04
8.148416e-04
8.122792e-04
8.095645e-04
8.064944e-04
8.038716e-04
8.045316e-04
8.096980e-04
8.085676e-04
8.114840e-04
8.097857e-04
8.081772e-04
8.116147e-04
4.869622e-04
7.571320e-04
8.476574e-04
8.412341e-04
8.364336e-04
8.334547e-04
8.306432e-04
8.270840e-04
8.213366e-04
8.123721e-04
8.027424e-04
7.991948e-04
8.056742e-04
8.079444e-04
8.142674e-04
8.087120e-04
8.076553e-04
8.086451e-04
3.313315e-04
6.373101e-04
8.321261e-04
8.097795e-04
7.898647e-04
7.836421e-04
7.772961e-04
7.674243e-04
7.468481e-04
7.188347e-04
6.837957e-04
6.547611e-04
6.589566e-04
6.779682e-04
6.922454e-04
6.869384e-04
6.656436e-04
6.376021e-04
-5.245956e-04
3.050783e-04
4.890183e-04
2.932101e-04
2.399882e-04
2.261311e-04
2.205229e-04
2.137662e-04
2.149363e-04
2.439705e-04
2.308571e-04
2.092921e-04
1.970960e-04
2.149790e-04
2.231418e-04
2.415023e-04
2.128344e-04
2.252338e-04
-3.455189e-04
3.702881e-04
5.486193e-04
5.264928e-04
5.299925e-04
5.343579e-04
5.385335e-04
5.426334e-04
5.465977e-04
5.504345e-04
5.542109e-04
5.579529e-04
5.616712e-04
5.653477e-04
5.689561e-04
5.725307e-04
5.761445e-04
5.797628e-04
5.833200e-04
5.869532e-04
5.906490e-04
5.941084e-04
5.976369e-04
6.007705e-04
6.037199e-04
6.066663e-04
6.100610e-04
6.135550e-04
6.171618e-04
6.211271e-04
6.252512e-04
6.294700e-04
6.337328e-04
6.380318e-04
6.422394e-04
6.462168e-04
6.501209e-04
6.540559e-04
6.581396e-04
6.621524e-04
6.660804e-04
6.699160e-04
6.738115e-04
6.780422e-04
6.828654e-04
6.881048e-04
6.932982e-04
6.973273e-04
7.005525e-04
7.037848e-04
7.072979e-04
7.104353e-04
7.133157e-04
7.157588e-04
7.178303e-04
7.197300e-04
7.210070e-04
7.220739e-04
7.234255e-04
7.247992e-04
7.260702e-04
7.273502e-04
7.291159e-04
7.309480e-04
7.326832e-04
7.345619e-04
7.369282e-04
7.396566e-04
7.427810e-04
7.458339e-04
7.488564e-04
7.515221e-04
7.531540e-04
7.551576e-04
7.583124e-04
7.617481e-04
7.656771e-04
7.701864e-04
7.755034e-04
7.808552e-04
7.863127e-04
7.920356e-04
7.974848e-04
8.027371e-04
8.074058e-04
8.120324e-04
8.171018e-04
8.215447e-04
8.258669e-04
8.300690e-04
8.351050e-04
8.400062e-04
8.448411e-04
8.487755e-04
8.503990e-04
8.521000e-04
8.541498e-04
8.564333e-04
8.581074e-04
8.594246e-04
8.604755e-04
8.614830e-04
8.627388e-04
8.644271e-04
8.650789e-04
8.629365e-04
8.600076e-04
8.556171e-04
8.481828e-04
8.395242e-04
8.303442e-04
8.202166e-04
8.088610e-04
7.953760e-04
7.818570e-04
7.685908e-04
7.549729e-04
7.405542e-04
7.244524e-04
7.063046e-04
6.874567e-04
6.686722e-04
6.486088e-04
6.283282e-04
6.085298e-04
5.888847e-04
5.689319e-04
5.490693e-04
5.329799e-04
5.172417e-04
4.989115e-04
4.808110e-04
4.654544e-04
4.527816e-04
4.419372e-04
4.329332e-04
4.231930e-04
4.134693e-04
4.048102e-04
3.951732e-04
3.881075e-04
3.820014e-04
3.804136e-04
3.811659e-04
3.875566e-04
3.950950e-04
4.061543e-04
4.159416e-04
4.255186e-04
4.350961e-04
4.446893e-04
4.533524e-04
4.577026e-04
4.609760e-04
4.647174e-04
4.703238e-04
4.806373e-04
4.907850e-04
5.022080e-04
5.137357e-04
5.250615e-04
5.371050e-04
5.479717e-04
5.581142e-04
5.710080e-04
5.873844e-04
6.026000e-04
6.179178e-04
6.335026e-04
6.460265e-04
6.588465e-04
6.745840e-04
6.922078e-04
7.081775e-04
6.365351e-04
5.630711e-04
5.583769e-04
5.907611e-04
6.616613e-04
8.623348e-04
3.678480e-04
3.336726e-04
3.663730e-04
3.901367e-04
3.942549e-04
3.983585e-04
4.029494e-04
4.076485e-04
4.122516e-04
4.169014e-04
4.216320e-04
4.266452e-04
4.319437e-04
4.372828e-04
4.428759e-04
4.485117e-04
4.541440e-04
4.597294e-04
4.651445e-04
4.705339e-04
4.759078e-04
4.811460e-04
4.862496e-04
4.914121e-04
4.964454e-04
5.014181e-04
5.064092e-04
5.113845e-04
5.163406e-04
5.211050e-04
5.254927e-04
5.298988e-04
5.343064e-04
5.385663e-04
5.429505e-04
5.473266e-04
5.517230e-04
5.561388e-04
5.610831e-04
5.662873e-04
5.715140e-04
5.769673e-04
5.824271e-04
5.882319e-04
5.944930e-04
6.008095e-04
6.072173e-04
6.131397e-04
6.192602e-04
6.253442e-04
6.314550e-04
6.376445e-04
6.439642e-04
6.502583e-04
6.566150e-04
6.633724e-04
6.704908e-04
6.781577e-04
6.859461e-04
6.943545e-04
7.034311e-04
7.127750e-04
7.219677e-04
7.315542e-04
7.413610e-04
7.505191e-04
7.599298e-04
7.694356e-04
7.791101e-04
7.896078e-04
8.006284e-04
8.124531e-04
8.243459e-04
8.362653e-04
8.479519e-04
8.598697e-04
8.722227e-04
8.842141e-04
8.956338e-04
9.063404e-04
9.164454e-04
9.264174e-04
9.369088e-04
9.479123e-04
9.587545e-04
9.700571e-04
9.825963e-04
9.954170e-04
1.007958e-03
1.018462e-03
1.028494e-03
1.040358e-03
1.052538e-03
1.064753e-03
1.076346e-03
1.088677e-03
1.101881e-03
1.114977e-03
1.127541e-03
1.140287e-03
1.152736e-03
1.164568e-03
1.177011e-03
1.189466e-03
1.200552e-03
1.210987e-03
1.221126e-03
1.229900e-03
1.237698e-03
1.244472e-03
1.247719e-03
1.250300e-03
1.251740e-03
1.253350e-03
1.253692e-03
1.253400e-03
1.253554e-03
1.252969e-03
1.250113e-03
1.244218e-03
1.239956e-03
1.236590e-03
1.234133e-03
1.232734e-03
1.233572e-03
1.234076e-03
1.234267e-03
1.232324e-03
1.227904e-03
1.219861e-03
1.209439e-03
1.198226e-03
1.188245e-03
1.178124e-03
1.165617e-03
1.153383e-03
1.142609e-03
1.134292e-03
1.125632e-03
1.119165e-03
1.113492e-03
1.107946e-03
1.103486e-03
1.102733e-03
1.106600e-03
1.112416e-03
1.119413e-03
1.128606e-03
1.137785e-03
1.145180e-03
1.151900e-03
1.159191e-03
1.167372e-03
1.174996e-03
1.179610e-03
1.182195e-03
1.183497e-03
1.184304e-03
1.184447e-03
1.182353e-03
1.180619e-03
1.177370e-03
1.173728e-03
1.168557e-03
1.163187e-03
1.157147e-03
1.151672e-03
1.147131e-03
1.145983e-03
1.146180e-03
1.147180e-03
1.148638e-03
1.156581e-03
1.186452e-03
1.297571e-03
1.290633e-03
1.292850e-03
1.235556e-03
1.382812e-03
1.690971e-03
5.759842e-04
3.924237e-04
4.561705e-04
4.608092e-04
4.614462e-04
4.663565e-04
4.717484e-04
4.773130e-04
4.828540e-04
4.884830e-04
4.941209e-04
4.997864e-04
5.052623e-04
5.106708e-04
5.161655e-04
5.217444e-04
5.276936e-04
5.340257e-04
5.402553e-04
5.463070e-04
5.523997e-04
5.586240e-04
5.649212e-04
5.710295e-04
5.773570e-04
5.835620e-04
5.898175e-04
5.961734e-04
6.027301e-04
6.092955e-04
6.158514e-04
6.223830e-04
6.290355e-04
6.359863e-04
6.433745e-04
6.508110e-04
6.583882e-04
6.662015e-04
6.736231e-04
6.812520e-04
6.893191e-04
6.982448e-04
7.079504e-04
7.178197e-04
7.280426e-04
7.380936e-04
7.481314e-04
7.578869e-04
7.676959e-04
7.776213e-04
7.875289e-04
7.976000e-04
8.076419e-04
8.177537e-04
8.283595e-04
8.392005e-04
8.502598e-04
8.616782e-04
8.732046e-04
8.859927e-04
8.992448e-04
9.130306e-04
9.274159e-04
9.424381e-04
9.573686e-04
9.719964e-04
9.866991e-04
1.002343e-03
1.018716e-03
1.037039e-03
1.057829e-03
1.078833e-03
1.099971e-03
1.119965e-03
1.139169e-03
1.158936e-03
1.179226e-03
1.199957e-03
1.220455e-03
1.241724e-03
1.262770e-03
1.283455e-03
1.303299e-03
1.323106e-03
1.343366e-03
1.363513e-03
1.382903e-03
1.402123e-03
1.422096e-03
1.442476e-03
1.462676e-03
1.482542e-03
1.502716e-03
1.523482e-03
1.544541e-03
1.565242e-03
1.585747e-03
1.605905e-03
1.625575e-03
1.645647e-03
1.666982e-03
1.689101e-03
1.710283e-03
1.729497e-03
1.747818e-03
1.766496e-03
1.784359e-03
1.800762e-03
1.816965e-03
1.833105e-03
1.849494e-03
1.866466e-03
1.882724e-03
1.900542e-03
1.919812e-03
1.937242e-03
1.953512e-03
1.970174e-03
1.985936e-03
2.000962e-03
2.015780e-03
2.030254e-03
2.043819e-03
2.056449e-03
2.068473e-03
2.079058e-03
2.088976e-03
2.098448e-03
2.104899e-03
2.107091e-03
2.106205e-03
2.102066e-03
2.097414e-03
2.092227e-03
2.086557e-03
2.079788e-03
2.072753e-03
2.065540e-03
2.058602e-03
2.053913e-03
2.052874e-03
2.053735e-03
2.054883e-03
2.059723e-03
2.064082e-03
2.067920e-03
2.072873e-03
2.083716e-03
2.093808e-03
2.101060e-03
2.104421e-03
2.105550e-03
2.109168e-03
2.115661e-03
2.122349e-03
2.128972e-03
2.133823e-03
2.135813e-03
2.136067e-03
2.135307e-03
2.133151e-03
2.128051e-03
2.115831e-03
2.099025e-03
2.079329e-03
2.059177e-03
2.041932e-03
2.022952e-03
2.000901e-03
1.974416e-03
1.948939e-03
1.928362e-03
1.925643e-03
2.017295e-03
2.185900e-03
2.211899e-03
2.222052e-03
1.957583e-03
2.085842e-03
2.618119e-03
5.466195e-04
4.268343e-04
4.748880e-04
4.792002e-04
4.824190e-04
4.873488e-04
4.927693e-04
4.983534e-04
5.039661e-04
5.095412e-04
5.151200e-04
5.207168e-04
5.262829e-04
5.318062e-04
5.373761e-04
5.430345e-04
5.487560e-04
5.547393e-04
5.608881e-04
5.674197e-04
5.741295e-04
5.811665e-04
5.886759e-04
5.965451e-04
6.046040e-04
6.134618e-04
6.224438e-04
6.310838e-04
6.397982e-04
6.489483e-04
6.582226e-04
6.678502e-04
6.779285e-04
6.881388e-04
6.984353e-04
7.089846e-04
7.194864e-04
7.301224e-04
7.410283e-04
7.518340e-04
7.627303e-04
7.741386e-04
7.856565e-04
7.976979e-04
8.098072e-04
8.220971e-04
8.348880e-04
8.477016e-04
8.605782e-04
8.731784e-04
8.853942e-04
8.982842e-04
9.113754e-04
9.246058e-04
9.379433e-04
9.511594e-04
9.645778e-04
9.792315e-04
9.943507e-04
1.010011e-03
1.026498e-03
1.044634e-03
1.064818e-03
1.085342e-03
1.106227e-03
1.128686e-03
1.151896e-03
1.175994e-03
1.200350e-03
1.224856e-03
1.248963e-03
1.272415e-03
1.295100e-03
1.318085e-03
1.341432e-03
1.364837e-03
1.389502e-03
1.414642e-03
1.440075e-03
1.465885e-03
1.491803e-03
1.517706e-03
1.543827e-03
1.569754e-03
1.596235e-03
1.622654e-03
1.648762e-03
1.674581e-03
1.700214e-03
1.725973e-03
1.752059e-03
1.777622e-03
1.803063e-03
1.829198e-03
1.856804e-03
1.885344e-03
1.912624e-03
1.938755e-03
1.964138e-03
1.991092e-03
2.019571e-03
2.047793e-03
2.075341e-03
2.100719e-03
2.123500e-03
2.145638e-03
2.168211e-03
2.191628e-03
2.215539e-03
2.239790e-03
2.265392e-03
2.293082e-03
2.321388e-03
2.350702e-03
2.378841e-03
2.406695e-03
2.433978e-03
2.461751e-03
2.491124e-03
2.521092e-03
2.553447e-03
2.585459e-03
2.613918e-03
2.636582e-03
2.656656e-03
2.674855e-03
2.690598e-03
2.709523e-03
2.728433e-03
2.749117e-03
2.768146e-03
2.781535e-03
2.790425e-03
2.797255e-03
2.803842e-03
2.811734e-03
2.818428e-03
2.825594e-03
2.833933e-03
2.841998e-03
2.852327e-03
2.861240e-03
2.871229e-03
2.883003e-03
2.895777e-03
2.911650e-03
2.927865e-03
2.943237e-03
2.958941e-03
2.972642e-03
2.986261e-03
3.002122e-03
3.018921e-03
3.033755e-03
3.047531e-03
3.058900e-03
3.068927e-03
3.078261e-03
3.085311e-03
3.091540e-03
3.095759e-03
3.099400e-03
3.100707e-03
3.094338e-03
3.084321e-03
3.071048e-03
3.052428e-03
3.029864e-03
3.008673e-03
2.988978e-03
2.970407e-03
2.953593e-03
2.955472e-03
3.033285e-03
3.142738e-03
3.042180e-03
2.838322e-03
2.434140e-03
2.527010e-03
3.180530e-03
5.307865e-04
4.384154e-04
4.858204e-04
4.930400e-04
4.951887e-04
4.996497e-04
5.044680e-04
5.093176e-04
5.144325e-04
5.196960e-04
5.251630e-04
5.309861e-04
5.367761e-04
5.428264e-04
5.496215e-04
5.568583e-04
5.642522e-04
5.718063e-04
5.797077e-04
5.879386e-04
5.963464e-04
6.050033e-04
6.138389e-04
6.228720e-04
6.315354e-04
6.404347e-04
6.495038e-04
6.588276e-04
6.686447e-04
6.790876e-04
6.895118e-04
7.000761e-04
7.108812e-04
7.219392e-04
7.334209e-04
7.449183e-04
7.564225e-04
7.681371e-04
7.798398e-04
7.917513e-04
8.038395e-04
8.160742e-04
8.286356e-04
8.414065e-04
8.542326e-04
8.672881e-04
8.806967e-04
8.932683e-04
9.058715e-04
9.191411e-04
9.333412e-04
9.476544e-04
9.621859e-04
9.769901e-04
9.927188e-04
1.009786e-03
1.027656e-03
1.045697e-03
1.064994e-03
1.084893e-03
1.106127e-03
1.129671e-03
1.153899e-03
1.177886e-03
1.202496e-03
1.228328e-03
1.254452e-03
1.280177e-03
1.305361e-03
1.330302e-03
1.355457e-03
1.380419e-03
1.405351e-03
1.431235e-03
1.457771e-03
1.484586e-03
1.511842e-03
1.539288e-03
1.567493e-03
1.596446e-03
1.624808e-03
1.652568e-03
1.679974e-03
1.707462e-03
1.735922e-03
1.764451e-03
1.792872e-03
1.821052e-03
1.849437e-03
1.880728e-03
1.912758e-03
1.942513e-03
1.971078e-03
2.000319e-03
2.028504e-03
2.055814e-03
2.084014e-03
2.113213e-03
2.140928e-03
2.168055e-03
2.196228e-03
2.224086e-03
2.250790e-03
2.275615e-03
2.299484e-03
2.324213e-03
2.349425e-03
2.376181e-03
2.403861e-03
2.432893e-03
2.463964e-03
2.496896e-03
2.532294e-03
2.568736e-03
2.606236e-03
2.645960e-03
2.685544e-03
2.726209e-03
2.768478e-03
2.810277e-03
2.848498e-03
2.883791e-03
2.917639e-03
2.945532e-03
2.969965e-03
2.992637e-03
3.016944e-03
3.043234e-03
3.067923e-03
3.088963e-03
3.109837e-03
3.127358e-03
3.139942e-03
3.151494e-03
3.162825e-03
3.173567e-03
3.184185e-03
3.195027e-03
3.207315e-03
3.220566e-03
3.235729e-03
3.250898e-03
3.264697e-03
3.282596e-03
3.306645e-03
3.332869e-03
3.358682e-03
3.380909e-03
3.400938e-03
3.422477e-03
3.443234e-03
3.461795e-03
3.481061e-03
3.497521e-03
3.517257e-03
3.535572e-03
3.553798e-03
3.570411e-03
3.582851e-03
3.589251e-03
3.594343e-03
3.596830e-03
3.600081e-03
3.602583e-03
3.604237e-03
3.600710e-03
3.595871e-03
3.589136e-03
3.577289e-03
3.561872e-03
3.543157e-03
3.525663e-03
3.516996e-03
3.568438e-03
3.623505e-03
3.435935e-03
3.116225e-03
2.680610e-03
2.750956e-03
3.466415e-03
5.142251e-04
4.491497e-04
5.005702e-04
5.050658e-04
5.077884e-04
5.124788e-04
5.176019e-04
5.228020e-04
5.282388e-04
5.339403e-04
5.397491e-04
5.459567e-04
5.526447e-04
5.595363e-04
5.666696e-04
5.743503e-04
5.823504e-04
5.906013e-04
5.992849e-04
6.081613e-04
6.172666e-04
6.265921e-04
6.360539e-04
6.454767e-04
6.544142e-04
6.638971e-04
6.737305e-04
6.837036e-04
6.942180e-04
7.049306e-04
7.156812e-04
7.266294e-04
7.377040e-04
7.488237e-04
7.600640e-04
7.713105e-04
7.824887e-04
7.938403e-04
8.055298e-04
8.176235e-04
8.298136e-04
8.422519e-04
8.549712e-04
8.679827e-04
8.817199e-04
8.958133e-04
9.094423e-04
9.234747e-04
9.385536e-04
9.547733e-04
9.717281e-04
9.896108e-04
1.007738e-03
1.025856e-03
1.044121e-03
1.064102e-03
1.084534e-03
1.105953e-03
1.128617e-03
1.151434e-03
1.175980e-03
1.202376e-03
1.228425e-03
1.254436e-03
1.280651e-03
1.306480e-03
1.332257e-03
1.358423e-03
1.384712e-03
1.411227e-03
1.437883e-03
1.465245e-03
1.492428e-03
1.519893e-03
1.548103e-03
1.576000e-03
1.603872e-03
1.632184e-03
1.660850e-03
1.691379e-03
1.721220e-03
1.749823e-03
1.778096e-03
1.807738e-03
1.837880e-03
1.867230e-03
1.900235e-03
1.932696e-03
1.963245e-03
1.994703e-03
2.025812e-03
2.055944e-03
2.085027e-03
2.112905e-03
2.139734e-03
2.164968e-03
2.192018e-03
2.221768e-03
2.252822e-03
2.283660e-03
2.314951e-03
2.347251e-03
2.379550e-03
2.413305e-03
2.445905e-03
2.479469e-03
2.513274e-03
2.546285e-03
2.579281e-03
2.613161e-03
2.650066e-03
2.688017e-03
2.730514e-03
2.773647e-03
2.816779e-03
2.861720e-03
2.908821e-03
2.958007e-03
3.005186e-03
3.046859e-03
3.086260e-03
3.119220e-03
3.144356e-03
3.163972e-03
3.181854e-03
3.201617e-03
3.224519e-03
3.249371e-03
3.272028e-03
3.292545e-03
3.312046e-03
3.329195e-03
3.345233e-03
3.365073e-03
3.385410e-03
3.403204e-03
3.420665e-03
3.438205e-03
3.455138e-03
3.471741e-03
3.489851e-03
3.506620e-03
3.526508e-03
3.549317e-03
3.573810e-03
3.600780e-03
3.628768e-03
3.655363e-03
3.680521e-03
3.705469e-03
3.729275e-03
3.751582e-03
3.775541e-03
3.800531e-03
3.830370e-03
3.855856e-03
3.877872e-03
3.896299e-03
3.909011e-03
3.920312e-03
3.928138e-03
3.931154e-03
3.932442e-03
3.934111e-03
3.938368e-03
3.944659e-03
3.948417e-03
3.948590e-03
3.939022e-03
3.926941e-03
3.910695e-03
3.891101e-03
3.879012e-03
3.913869e-03
3.965719e-03
3.727539e-03
3.324272e-03
2.866273e-03
2.914225e-03
3.658756e-03
4.871262e-04
4.552912e-04
5.143164e-04
5.229889e-04
5.264233e-04
5.317854e-04
5.374589e-04
5.432380e-04
5.492318e-04
5.554740e-04
5.617867e-04
5.684110e-04
5.753620e-04
5.828790e-04
5.908802e-04
5.991603e-04
6.075979e-04
6.163853e-04
6.252173e-04
6.339838e-04
6.427721e-04
6.516675e-04
6.606232e-04
6.699145e-04
6.794555e-04
6.887607e-04
6.980705e-04
7.079624e-04
7.181837e-04
7.286236e-04
7.392291e-04
7.500847e-04
7.612946e-04
7.727179e-04
7.844685e-04
7.964120e-04
8.087597e-04
8.214183e-04
8.343842e-04
8.478860e-04
8.613612e-04
8.744998e-04
8.883090e-04
9.022398e-04
9.163483e-04
9.303014e-04
9.467545e-04
9.640368e-04
9.814651e-04
9.990804e-04
1.016783e-03
1.035719e-03
1.055780e-03
1.076071e-03
1.097341e-03
1.119366e-03
1.142588e-03
1.166973e-03
1.192066e-03
1.217280e-03
1.242778e-03
1.268172e-03
1.293796e-03
1.320000e-03
1.344907e-03
1.370471e-03
1.397269e-03
1.424863e-03
1.452434e-03
1.479872e-03
1.507401e-03
1.535802e-03
1.563611e-03
1.591081e-03
1.619658e-03
1.648788e-03
1.678027e-03
1.708579e-03
1.739055e-03
1.769652e-03
1.800225e-03
1.830843e-03
1.861091e-03
1.892761e-03
1.925662e-03
1.958313e-03
1.991519e-03
2.025456e-03
2.058235e-03
2.090205e-03
2.120417e-03
2.151025e-03
2.181472e-03
2.211273e-03
2.241731e-03
2.273431e-03
2.305112e-03
2.336858e-03
2.368884e-03
2.401296e-03
2.434576e-03
2.468675e-03
2.504517e-03
2.542809e-03
2.582367e-03
2.624217e-03
2.665764e-03
2.708925e-03
2.750137e-03
2.785803e-03
2.820480e-03
2.856913e-03
2.894514e-03
2.933107e-03
2.974817e-03
3.018138e-03
3.065266e-03
3.113668e-03
3.161725e-03
3.207273e-03
3.246545e-03
3.280751e-03
3.308477e-03
3.331124e-03
3.352493e-03
3.374876e-03
3.399176e-03
3.424235e-03
3.448155e-03
3.470848e-03
3.491948e-03
3.509642e-03
3.528669e-03
3.552731e-03
3.577330e-03
3.601820e-03
3.625852e-03
3.648009e-03
3.669294e-03
3.690784e-03
3.714588e-03
3.739466e-03
3.766336e-03
3.795066e-03
3.826064e-03
3.858249e-03
3.884592e-03
3.908870e-03
3.935901e-03
3.966032e-03
3.996065e-03
4.025013e-03
4.053956e-03
4.079458e-03
4.106155e-03
4.130649e-03
4.153025e-03
4.172685e-03
4.189670e-03
4.203074e-03
4.213748e-03
4.219973e-03
4.220425e-03
4.219953e-03
4.221761e-03
4.225584e-03
4.230163e-03
4.230985e-03
4.225394e-03
4.215698e-03
4.202237e-03
4.184170e-03
4.167551e-03
4.201923e-03
4.252023e-03
3.970965e-03
3.522137e-03
3.025767e-03
3.062888e-03
3.817793e-03
4.346540e-04
4.554623e-04
5.378810e-04
5.443010e-04
5.484575e-04
5.544743e-04
5.604674e-04
5.665302e-04
5.729356e-04
5.794980e-04
5.861049e-04
5.932716e-04
6.007968e-04
6.084669e-04
6.162110e-04
6.240872e-04
6.324007e-04
6.407646e-04
6.490579e-04
6.575817e-04
6.661919e-04
6.750778e-04
6.846492e-04
6.944750e-04
7.047627e-04
7.153853e-04
7.263060e-04
7.372534e-04
7.479211e-04
7.585620e-04
7.696357e-04
7.809126e-04
7.922946e-04
8.035414e-04
8.153835e-04
8.287425e-04
8.431366e-04
8.577149e-04
8.721229e-04
8.863809e-04
9.002953e-04
9.156052e-04
9.310530e-04
9.464143e-04
9.613284e-04
9.776007e-04
9.941998e-04
1.010703e-03
1.027836e-03
1.046152e-03
1.066603e-03
1.087249e-03
1.108257e-03
1.130106e-03
1.152353e-03
1.175498e-03
1.198889e-03
1.223125e-03
1.248278e-03
1.274131e-03
1.299597e-03
1.324417e-03
1.348731e-03
1.373397e-03
1.399639e-03
1.426901e-03
1.454059e-03
1.481513e-03
1.509011e-03
1.537157e-03
1.566573e-03
1.596219e-03
1.625419e-03
1.654852e-03
1.684268e-03
1.713726e-03
1.743500e-03
1.773316e-03
1.804784e-03
1.836270e-03
1.867296e-03
1.899977e-03
1.935694e-03
1.970617e-03
2.004401e-03
2.038467e-03
2.074638e-03
2.110408e-03
2.146146e-03
2.181276e-03
2.214884e-03
2.247324e-03
2.278063e-03
2.309536e-03
2.342494e-03
2.374766e-03
2.407034e-03
2.438218e-03
2.471224e-03
2.504940e-03
2.539848e-03
2.575605e-03
2.612674e-03
2.652636e-03
2.692037e-03
2.733818e-03
2.777752e-03
2.822446e-03
2.865000e-03
2.905656e-03
2.944774e-03
2.985553e-03
3.026192e-03
3.065402e-03
3.105614e-03
3.149180e-03
3.195859e-03
3.245880e-03
3.294133e-03
3.339892e-03
3.379163e-03
3.412023e-03
3.440674e-03
3.466375e-03
3.490237e-03
3.515092e-03
3.542042e-03
3.571921e-03
3.600222e-03
3.626269e-03
3.651551e-03
3.673720e-03
3.697239e-03
3.723476e-03
3.752457e-03
3.782793e-03
3.813401e-03
3.840396e-03
3.864305e-03
3.888936e-03
3.918183e-03
3.949510e-03
3.980023e-03
4.010654e-03
4.043789e-03
4.075763e-03
4.105478e-03
4.134280e-03
4.162621e-03
4.190097e-03
4.215179e-03
4.237818e-03
4.262320e-03
4.286923e-03
4.313770e-03
4.341461e-03
4.367989e-03
4.391095e-03
4.409167e-03
4.422990e-03
4.436060e-03
4.445497e-03
4.448825e-03
4.449411e-03
4.452333e-03
4.455531e-03
4.458608e-03
4.460127e-03
4.453195e-03
4.443107e-03
4.428812e-03
4.411032e-03
4.398402e-03
4.433893e-03
4.483248e-03
4.162802e-03
3.695343e-03
3.158959e-03
3.172569e-03
3.952018e-03
3.470279e-04
4.534581e-04
5.566903e-04
5.650554e-04
5.702618e-04
5.765400e-04
5.828193e-04
5.890967e-04
5.954306e-04
6.018644e-04
6.085822e-04
6.159923e-04
6.237605e-04
6.316837e-04
6.392947e-04
6.475054e-04
6.559797e-04
6.649467e-04
6.738168e-04
6.829418e-04
6.923215e-04
7.019027e-04
7.115149e-04
7.213186e-04
7.318025e-04
7.426898e-04
7.536951e-04
7.646442e-04
7.761444e-04
7.883333e-04
8.006635e-04
8.130122e-04
8.257184e-04
8.385782e-04
8.515683e-04
8.649870e-04
8.799057e-04
8.948469e-04
9.096492e-04
9.246285e-04
9.398976e-04
9.551619e-04
9.704993e-04
9.859169e-04
1.001205e-03
1.018619e-03
1.037852e-03
1.057259e-03
1.077184e-03
1.097587e-03
1.118238e-03
1.139144e-03
1.160812e-03
1.183149e-03
1.205339e-03
1.228012e-03
1.251266e-03
1.275306e-03
1.299319e-03
1.323247e-03
1.347452e-03
1.371704e-03
1.396959e-03
1.422019e-03
1.448720e-03
1.476040e-03
1.503772e-03
1.532239e-03
1.561621e-03
1.590852e-03
1.620424e-03
1.650512e-03
1.680461e-03
1.710898e-03
1.741173e-03
1.771245e-03
1.801274e-03
1.830658e-03
1.861389e-03
1.893380e-03
1.930591e-03
1.970001e-03
2.010029e-03
2.049351e-03
2.087484e-03
2.124321e-03
2.160883e-03
2.196053e-03
2.230176e-03
2.263167e-03
2.296043e-03
2.328066e-03
2.360292e-03
2.391715e-03
2.422228e-03
2.453437e-03
2.486227e-03
2.518882e-03
2.551371e-03
2.584190e-03
2.618900e-03
2.655815e-03
2.693188e-03
2.730865e-03
2.769722e-03
2.810455e-03
2.855845e-03
2.901563e-03
2.947240e-03
2.994194e-03
3.038876e-03
3.084281e-03
3.128114e-03
3.169849e-03
3.211667e-03
3.255889e-03
3.301466e-03
3.347946e-03
3.389945e-03
3.430327e-03
3.465369e-03
3.499511e-03
3.532532e-03
3.563440e-03
3.593076e-03
3.621957e-03
3.650852e-03
3.681360e-03
3.712657e-03
3.744672e-03
3.776081e-03
3.804269e-03
3.832892e-03
3.860564e-03
3.890730e-03
3.922164e-03
3.955007e-03
3.985334e-03
4.009953e-03
4.035400e-03
4.063283e-03
4.094008e-03
4.126083e-03
4.158770e-03
4.188794e-03
4.214180e-03
4.238356e-03
4.266037e-03
4.295092e-03
4.322191e-03
4.345617e-03
4.367653e-03
4.390347e-03
4.414559e-03
4.441743e-03
4.469758e-03
4.496636e-03
4.522156e-03
4.547256e-03
4.566811e-03
4.582395e-03
4.593955e-03
4.600512e-03
4.609295e-03
4.617630e-03
4.627045e-03
4.633104e-03
4.631145e-03
4.624009e-03
4.612876e-03
4.600476e-03
4.583464e-03
4.576026e-03
4.620487e-03
4.669165e-03
4.310864e-03
3.830803e-03
3.286585e-03
3.265250e-03
4.057659e-03
2.661905e-04
4.350461e-04
5.660328e-04
5.722106e-04
5.764546e-04
5.838452e-04
5.911375e-04
5.984240e-04
6.055103e-04
6.123683e-04
6.194188e-04
6.270340e-04
6.346574e-04
6.425283e-04
6.506035e-04
6.590387e-04
6.677499e-04
6.768900e-04
6.860938e-04
6.954450e-04
7.046879e-04
7.139135e-04
7.238282e-04
7.346590e-04
7.460888e-04
7.574984e-04
7.690818e-04
7.807197e-04
7.923598e-04
8.041584e-04
8.166699e-04
8.294128e-04
8.425360e-04
8.559302e-04
8.700374e-04
8.845675e-04
8.992436e-04
9.138776e-04
9.288952e-04
9.445288e-04
9.607533e-04
9.770855e-04
9.950548e-04
1.013972e-03
1.032867e-03
1.052526e-03
1.073240e-03
1.094090e-03
1.115107e-03
1.135791e-03
1.156428e-03
1.177467e-03
1.198175e-03
1.219229e-03
1.241118e-03
1.263232e-03
1.285662e-03
1.308605e-03
1.332533e-03
1.357574e-03
1.383448e-03
1.411452e-03
1.439639e-03
1.467639e-03
1.497026e-03
1.526189e-03
1.554334e-03
1.581458e-03
1.608605e-03
1.636171e-03
1.664447e-03
1.694479e-03
1.725565e-03
1.758169e-03
1.790880e-03
1.824982e-03
1.859412e-03
1.893173e-03
1.928788e-03
1.967176e-03