/*--------------------------------*- C++ -*----------------------------------*\
| =========                 |                                                 |
| \\      /  F ield         | OpenFOAM: The Open Source CFD Toolbox           |
|  \\    /   O peration     | Version:  v2406                                 |
|   \\  /    A nd           | Website:  www.openfoam.com                      |
|    \\/     M anipulation  |                                                 |
\*---------------------------------------------------------------------------*/
FoamFile
{
    version     2.0;
    format      ascii;
    class       volScalarField;
    location    "predicted";
    object      p;
}
// * * * * * * * * * * * * * * * * * * * * * * * * * * * * * * * * * * * * * //

dimensions      [0 2 -2 0 0 0 0];

internalField   nonuniform List<scalar>
49181
(
-6.063793e+00
-6.021648e+00
-6.146443e+00
-7.078866e+00
-7.260186e+00
-7.322897e+00
-7.372837e+00
-7.415907e+00
-7.458541e+00
-7.475084e+00
-7.489975e+00
-7.490285e+00
-7.480379e+00
-7.463386e+00
-7.386605e+00
-7.240892e+00
-7.286860e+00
-6.633676e+00
-5.952445e+00
-5.705047e+00
-5.932190e+00
-6.382380e+00
-6.540542e+00
-6.570942e+00
-6.590540e+00
-6.607577e+00
-6.592871e+00
-6.567331e+00
-6.547490e+00
-6.556127e+00
-6.544496e+00
-6.532681e+00
-6.519534e+00
-6.477695e+00
-6.360109e+00
-6.266214e+00
-5.984625e+00
-5.917623e+00
-6.148688e+00
-6.498921e+00
-6.638471e+00
-6.688936e+00
-6.722881e+00
-6.760862e+00
-6.795145e+00
-6.816716e+00
-6.849763e+00
-6.868290e+00
-6.831460e+00
-6.779133e+00
-6.705123e+00
-6.685565e+00
-6.685302e+00
-6.790095e+00
-6.728691e+00
-6.343722e+00
-6.488681e+00
-6.834022e+00
-6.975074e+00
-7.017843e+00
-7.050098e+00
-7.085673e+00
-7.125082e+00
-7.161571e+00
-7.210830e+00
-7.212231e+00
-7.168092e+00
-7.119693e+00
-7.054154e+00
-7.027399e+00
-7.029869e+00
-7.135440e+00
-6.752333e+00
-6.466230e+00
-6.533409e+00
-6.827866e+00
-6.958496e+00
-7.005509e+00
-7.046454e+00
-7.088576e+00
-7.125789e+00
-7.156512e+00
-7.189890e+00
-7.195164e+00
-7.151826e+00
-7.114326e+00
-7.030050e+00
-6.989013e+00
-6.991207e+00
-7.116405e+00
-6.666200e+00
-6.457988e+00
-6.483423e+00
-6.723365e+00
-6.842716e+00
-6.889314e+00
-6.928824e+00
-6.966011e+00
-7.000269e+00
-7.028628e+00
-7.050327e+00
-7.054044e+00
-7.010417e+00
-6.986711e+00
-6.913999e+00
-6.881409e+00
-6.883938e+00
-7.003665e+00
-6.561958e+00
-6.458678e+00
-6.443938e+00
-6.659345e+00
-6.771749e+00
-6.812459e+00
-6.846028e+00
-6.877916e+00
-6.908919e+00
-6.936671e+00
-6.957577e+00
-6.958094e+00
-6.914298e+00
-6.897607e+00
-6.841488e+00
-6.817322e+00
-6.820098e+00
-6.925292e+00
-6.441926e+00
-6.467452e+00
-6.414067e+00
-6.624588e+00
-6.724422e+00
-6.761165e+00
-6.791565e+00
-6.820390e+00
-6.844656e+00
-6.866405e+00
-6.883623e+00
-6.883020e+00
-6.847955e+00
-6.836162e+00
-6.783687e+00
-6.761480e+00
-6.762353e+00
-6.853429e+00
-6.305072e+00
-6.456576e+00
-6.387324e+00
-6.603156e+00
-6.688126e+00
-6.718632e+00
-6.742051e+00
-6.763136e+00
-6.782771e+00
-6.798809e+00
-6.811478e+00
-6.814298e+00
-6.783351e+00
-6.775022e+00
-6.735194e+00
-6.724478e+00
-6.720221e+00
-6.787718e+00
-6.168851e+00
-6.394188e+00
-6.368800e+00
-6.582064e+00
-6.665726e+00
-6.692971e+00
-6.711835e+00
-6.729921e+00
-6.749235e+00
-6.766772e+00
-6.780155e+00
-6.781759e+00
-6.754368e+00
-6.739866e+00
-6.705267e+00
-6.697662e+00
-6.691619e+00
-6.748098e+00
-6.052588e+00
-6.337264e+00
-6.375197e+00
-6.557667e+00
-6.633580e+00
-6.658480e+00
-6.678072e+00
-6.696440e+00
-6.714196e+00
-6.731650e+00
-6.746288e+00
-6.750701e+00
-6.722755e+00
-6.707405e+00
-6.670493e+00
-6.665449e+00
-6.659126e+00
-6.714524e+00
-5.968723e+00
-6.296681e+00
-6.375695e+00
-6.549656e+00
-6.608855e+00
-6.632150e+00
-6.648124e+00
-6.663943e+00
-6.680834e+00
-6.695550e+00
-6.707485e+00
-6.708599e+00
-6.679999e+00
-6.674092e+00
-6.643861e+00
-6.642711e+00
-6.638899e+00
-6.688772e+00
-5.915488e+00
-6.250413e+00
-6.379197e+00
-6.537483e+00
-6.596206e+00
-6.611621e+00
-6.624849e+00
-6.639615e+00
-6.653271e+00
-6.665780e+00
-6.677885e+00
-6.679871e+00
-6.652139e+00
-6.646778e+00
-6.622953e+00
-6.630614e+00
-6.624202e+00
-6.667971e+00
-5.871804e+00
-6.217591e+00
-6.370242e+00
-6.521478e+00
-6.581405e+00
-6.597524e+00
-6.610307e+00
-6.621139e+00
-6.631954e+00
-6.646323e+00
-6.657782e+00
-6.658890e+00
-6.631320e+00
-6.624413e+00
-6.611150e+00
-6.622023e+00
-6.616077e+00
-6.652952e+00
-5.827768e+00
-6.182007e+00
-6.355086e+00
-6.509822e+00
-6.572495e+00
-6.591726e+00
-6.601230e+00
-6.611281e+00
-6.620606e+00
-6.627500e+00
-6.633290e+00
-6.632312e+00
-6.602987e+00
-6.613581e+00
-6.604606e+00
-6.614578e+00
-6.609330e+00
-6.647427e+00
-5.771033e+00
-6.153434e+00
-6.335862e+00
-6.492218e+00
-6.554956e+00
-6.573819e+00
-6.586576e+00
-6.596642e+00
-6.604340e+00
-6.613328e+00
-6.619343e+00
-6.614533e+00
-6.588424e+00
-6.598000e+00
-6.587690e+00
-6.596343e+00
-6.590487e+00
-6.634394e+00
-5.701805e+00
-6.127036e+00
-6.316948e+00
-6.470085e+00
-6.528298e+00
-6.549287e+00
-6.561010e+00
-6.571361e+00
-6.580242e+00
-6.588412e+00
-6.594000e+00
-6.589067e+00
-6.563642e+00
-6.572407e+00
-6.557705e+00
-6.562245e+00
-6.555140e+00
-6.605967e+00
-5.623229e+00
-6.105371e+00
-6.288876e+00
-6.436096e+00
-6.489700e+00
-6.507272e+00
-6.518529e+00
-6.529718e+00
-6.540874e+00
-6.550779e+00
-6.556239e+00
-6.550700e+00
-6.524350e+00
-6.529303e+00
-6.510055e+00
-6.517634e+00
-6.510523e+00
-6.558071e+00
-5.562165e+00
-6.100344e+00
-6.267749e+00
-6.410063e+00
-6.465903e+00
-6.475575e+00
-6.481492e+00
-6.488800e+00
-6.499544e+00
-6.510927e+00
-6.518275e+00
-6.513300e+00
-6.485898e+00
-6.485955e+00
-6.483324e+00
-6.498662e+00
-6.493424e+00
-6.532418e+00
-5.600656e+00
-6.130785e+00
-6.317730e+00
-6.453106e+00
-6.504167e+00
-6.512144e+00
-6.517263e+00
-6.523399e+00
-6.530805e+00
-6.537725e+00
-6.541390e+00
-6.534193e+00
-6.507116e+00
-6.519167e+00
-6.514863e+00
-6.534205e+00
-6.535261e+00
-6.582823e+00
-5.524045e+00
-6.198852e+00
-6.393765e+00
-6.507479e+00
-6.551863e+00
-6.563254e+00
-6.571433e+00
-6.580327e+00
-6.590719e+00
-6.599857e+00
-6.607379e+00
-6.599390e+00
-6.566970e+00
-6.573558e+00
-6.564133e+00
-6.579522e+00
-6.606305e+00
-6.580410e+00
-5.521369e+00
-6.118233e+00
-6.344018e+00
-6.420445e+00
-6.465499e+00
-6.482320e+00
-6.495079e+00
-6.505456e+00
-6.513558e+00
-6.520288e+00
-6.524517e+00
-6.515241e+00
-6.486516e+00
-6.515713e+00
-6.501723e+00
-6.511157e+00
-6.478601e+00
-6.439069e+00
-6.054184e+00
-6.382238e+00
-6.436022e+00
-6.499844e+00
-6.540493e+00
-6.554803e+00
-6.564704e+00
-6.575079e+00
-6.584630e+00
-6.592932e+00
-6.599400e+00
-6.591713e+00
-6.559015e+00
-6.586636e+00
-6.585497e+00
-6.594329e+00
-6.573854e+00
-6.484630e+00
-6.337490e+00
-6.484430e+00
-6.487934e+00
-6.542697e+00
-6.580954e+00
-6.595355e+00
-6.605012e+00
-6.615537e+00
-6.624195e+00
-6.630794e+00
-6.636363e+00
-6.628066e+00
-6.593594e+00
-6.625065e+00
-6.621932e+00
-6.634817e+00
-6.619697e+00
-6.547499e+00
-6.385705e+00
-6.496663e+00
-6.491725e+00
-6.542266e+00
-6.578186e+00
-6.594531e+00
-6.605042e+00
-6.613075e+00
-6.623104e+00
-6.630756e+00
-6.634856e+00
-6.624415e+00
-6.592896e+00
-6.622093e+00
-6.618075e+00
-6.633050e+00
-6.621981e+00
-6.553207e+00
-6.350574e+00
-6.484104e+00
-6.478521e+00
-6.527714e+00
-6.562427e+00
-6.576981e+00
-6.589202e+00
-6.598740e+00
-6.606867e+00
-6.616393e+00
-6.622167e+00
-6.611908e+00
-6.579356e+00
-6.610863e+00
-6.606523e+00
-6.623108e+00
-6.618333e+00
-6.549978e+00
-6.278602e+00
-6.379452e+00
-6.409586e+00
-6.462328e+00
-6.505955e+00
-6.521344e+00
-6.533788e+00
-6.544887e+00
-6.558712e+00
-6.574142e+00
-6.586241e+00
-6.577511e+00
-6.547810e+00
-6.576194e+00
-6.573314e+00
-6.587635e+00
-6.588279e+00
-6.531508e+00
-5.525181e+00
-6.211508e+00
-6.204050e+00
-6.318063e+00
-6.367755e+00
-6.389859e+00
-6.405113e+00
-6.423661e+00
-6.451760e+00
-6.496092e+00
-6.534279e+00
-6.543915e+00
-6.511114e+00
-6.536012e+00
-6.517120e+00
-6.554544e+00
-6.538530e+00
-6.467123e+00
-5.148801e+00
-6.069677e+00
-6.018191e+00
-6.134550e+00
-6.224652e+00
-6.251678e+00
-6.276899e+00
-6.312886e+00
-6.383772e+00
-6.425585e+00
-6.480881e+00
-6.516905e+00
-6.517098e+00
-6.515928e+00
-6.533066e+00
-6.558168e+00
-6.554475e+00
-6.454212e+00
-5.440970e+00
-5.028613e+00
-5.232941e+00
-5.783061e+00
-5.862367e+00
-5.911347e+00
-5.955003e+00
-6.031590e+00
-6.109866e+00
-6.197654e+00
-6.362211e+00
-6.508325e+00
-6.556530e+00
-6.505698e+00
-6.459024e+00
-6.445341e+00
-6.500016e+00
-6.474813e+00
-5.561428e+00
-6.351497e+00
-6.128313e+00
-6.462618e+00
-6.451643e+00
-6.446923e+00
-6.444391e+00
-6.442373e+00
-6.441223e+00
-6.441399e+00
-6.441477e+00
-6.441211e+00
-6.440677e+00
-6.440062e+00
-6.439161e+00
-6.438583e+00
-6.439352e+00
-6.440433e+00
-6.441714e+00
-6.442584e+00
-6.444122e+00
-6.447507e+00
-6.454249e+00
-6.462749e+00
-6.471466e+00
-6.480404e+00
-6.490990e+00
-6.502173e+00
-6.513933e+00
-6.526321e+00
-6.540187e+00
-6.554371e+00
-6.568291e+00
-6.582258e+00
-6.596800e+00
-6.612659e+00
-6.629105e+00
-6.645429e+00
-6.660398e+00
-6.674690e+00
-6.689071e+00
-6.703243e+00
-6.717927e+00
-6.733156e+00
-6.749155e+00
-6.766334e+00
-6.783252e+00
-6.800368e+00
-6.820329e+00
-6.841382e+00
-6.861935e+00
-6.883489e+00
-6.906051e+00
-6.930462e+00
-6.955222e+00
-6.980311e+00
-7.006271e+00
-7.031601e+00
-7.056905e+00
-7.080604e+00
-7.103983e+00
-7.128052e+00
-7.154132e+00
-7.180452e+00
-7.205445e+00
-7.231946e+00
-7.258660e+00
-7.286654e+00
-7.315523e+00
-7.346177e+00
-7.378210e+00
-7.411541e+00
-7.446624e+00
-7.480215e+00
-7.512816e+00
-7.544485e+00
-7.574715e+00
-7.607055e+00
-7.639144e+00
-7.669444e+00
-7.698265e+00
-7.726361e+00
-7.754460e+00
-7.781548e+00
-7.807205e+00
-7.830470e+00
-7.852213e+00
-7.871192e+00
-7.887838e+00
-7.900871e+00
-7.911880e+00
-7.921567e+00
-7.930567e+00
-7.939407e+00
-7.945414e+00
-7.950522e+00
-7.953956e+00
-7.953255e+00
-7.951741e+00
-7.944634e+00
-7.930621e+00
-7.915758e+00
-7.898589e+00
-7.877508e+00
-7.849934e+00
-7.815146e+00
-7.772607e+00
-7.724232e+00
-7.666791e+00
-7.603873e+00
-7.526666e+00
-7.443222e+00
-7.346806e+00
-7.251514e+00
-7.153279e+00
-7.050653e+00
-6.944121e+00
-6.830704e+00
-6.718594e+00
-6.616223e+00
-6.519372e+00
-6.418742e+00
-6.308008e+00
-6.189257e+00
-6.063910e+00
-5.928178e+00
-5.784455e+00
-5.624635e+00
-5.445652e+00
-5.246766e+00
-5.029164e+00
-4.785366e+00
-4.533356e+00
-4.270078e+00
-3.995189e+00
-3.707431e+00
-3.413555e+00
-3.103196e+00
-2.798306e+00
-2.472281e+00
-2.146070e+00
-1.820831e+00
-1.495192e+00
-1.176720e+00
-8.582828e-01
-5.410118e-01
-1.976197e-01
1.476573e-01
4.735100e-01
7.726534e-01
1.066708e+00
1.344554e+00
1.609244e+00
1.881049e+00
2.151129e+00
2.427594e+00
2.703700e+00
2.987932e+00
3.265307e+00
3.542992e+00
3.813156e+00
4.084860e+00
4.347531e+00
4.599654e+00
4.858929e+00
5.106905e+00
5.339738e+00
5.564709e+00
5.789886e+00
6.024188e+00
6.281427e+00
6.547676e+00
6.779694e+00
6.721528e+00
5.873499e+00
3.791687e+00
7.767918e-01
-1.802608e+00
-9.711517e-01
2.822054e+00
-6.330739e+00
-6.674902e+00
-6.846673e+00
-6.880931e+00
-6.903486e+00
-6.903778e+00
-6.896327e+00
-6.888376e+00
-6.881182e+00
-6.873797e+00
-6.866949e+00
-6.859733e+00
-6.852976e+00
-6.846074e+00
-6.841311e+00
-6.837077e+00
-6.832738e+00
-6.828467e+00
-6.825448e+00
-6.823360e+00
-6.821614e+00
-6.820352e+00
-6.819347e+00
-6.818653e+00
-6.818179e+00
-6.817668e+00
-6.816733e+00
-6.815658e+00
-6.814750e+00
-6.814732e+00
-6.818494e+00
-6.823398e+00
-6.828192e+00
-6.833201e+00
-6.839750e+00
-6.847252e+00
-6.857188e+00
-6.869630e+00
-6.883094e+00
-6.896434e+00
-6.910289e+00
-6.924657e+00
-6.937638e+00
-6.950955e+00
-6.965245e+00
-6.980636e+00
-6.996768e+00
-7.014160e+00
-7.031712e+00
-7.048977e+00
-7.065944e+00
-7.082450e+00
-7.099004e+00
-7.116258e+00
-7.134167e+00
-7.152612e+00
-7.170552e+00
-7.190432e+00
-7.211255e+00
-7.233146e+00
-7.255843e+00
-7.278158e+00
-7.299646e+00
-7.322155e+00
-7.345727e+00
-7.370153e+00
-7.395481e+00
-7.420171e+00
-7.444241e+00
-7.468225e+00
-7.491796e+00
-7.516861e+00
-7.542124e+00
-7.570688e+00
-7.599710e+00
-7.629098e+00
-7.659647e+00
-7.688969e+00
-7.717820e+00
-7.745595e+00
-7.770450e+00
-7.793588e+00
-7.815416e+00
-7.836069e+00
-7.854749e+00
-7.871881e+00
-7.890337e+00
-7.908586e+00
-7.925137e+00
-7.940597e+00
-7.953921e+00
-7.966988e+00
-7.980778e+00
-7.991181e+00
-7.997320e+00
-8.000789e+00
-8.001301e+00
-7.997822e+00
-7.990203e+00
-7.979549e+00
-7.965243e+00
-7.948960e+00
-7.929037e+00
-7.905181e+00
-7.878427e+00
-7.846541e+00
-7.809089e+00
-7.771276e+00
-7.740049e+00
-7.708853e+00
-7.668390e+00
-7.621968e+00
-7.570860e+00
-7.515344e+00
-7.452125e+00
-7.380009e+00
-7.301738e+00
-7.211830e+00
-7.117170e+00
-7.019831e+00
-6.909141e+00
-6.793918e+00
-6.677506e+00
-6.558272e+00
-6.433854e+00
-6.301463e+00
-6.159407e+00
-6.007859e+00
-5.851386e+00
-5.681052e+00
-5.500366e+00
-5.298057e+00
-5.074218e+00
-4.848705e+00
-4.608709e+00
-4.365868e+00
-4.086152e+00
-3.780218e+00
-3.469170e+00
-3.184023e+00
-2.922103e+00
-2.666089e+00
-2.405335e+00
-2.133770e+00
-1.860401e+00
-1.572978e+00
-1.278181e+00
-9.696861e-01
-6.580891e-01
-3.518645e-01
-3.076220e-02
3.045692e-01
6.374917e-01
9.721746e-01
1.295625e+00
1.630722e+00
1.968772e+00
2.304396e+00
2.629905e+00
2.935358e+00
3.222232e+00
3.493801e+00
3.765445e+00
4.036268e+00
4.305477e+00
4.567610e+00
4.826810e+00
5.082267e+00
5.336464e+00
5.596608e+00
5.853873e+00
6.091401e+00
6.230646e+00
6.047678e+00
5.313242e+00
4.073266e+00
2.161144e+00
9.329269e-01
2.674720e+00
6.568519e+00
-6.055782e+00
-6.772741e+00
-6.705747e+00
-6.768022e+00
-6.793432e+00
-6.789225e+00
-6.780948e+00
-6.774006e+00
-6.767186e+00
-6.761086e+00
-6.754989e+00
-6.748738e+00
-6.742823e+00
-6.737504e+00
-6.733193e+00
-6.729682e+00
-6.728203e+00
-6.726612e+00
-6.725472e+00
-6.725361e+00
-6.725347e+00
-6.725395e+00
-6.725747e+00
-6.727455e+00
-6.730446e+00
-6.733506e+00
-6.736699e+00
-6.740051e+00
-6.743544e+00
-6.746914e+00
-6.750708e+00
-6.754620e+00
-6.757997e+00
-6.760577e+00
-6.762951e+00
-6.766437e+00
-6.771712e+00
-6.777984e+00
-6.786534e+00
-6.797320e+00
-6.810686e+00
-6.825207e+00
-6.840381e+00
-6.856107e+00
-6.873485e+00
-6.892117e+00
-6.910101e+00
-6.928087e+00
-6.947003e+00
-6.966282e+00
-6.984107e+00
-7.001163e+00
-7.018060e+00
-7.034800e+00
-7.051444e+00
-7.072090e+00
-7.094408e+00
-7.118446e+00
-7.142392e+00
-7.168337e+00
-7.196374e+00
-7.225466e+00
-7.253760e+00
-7.282584e+00
-7.311904e+00
-7.341761e+00
-7.370887e+00
-7.400222e+00
-7.428859e+00
-7.454750e+00
-7.479049e+00
-7.502296e+00
-7.525670e+00
-7.549617e+00
-7.577121e+00
-7.604976e+00
-7.633096e+00
-7.662300e+00
-7.692692e+00
-7.725009e+00
-7.756070e+00
-7.785696e+00
-7.813855e+00
-7.839420e+00
-7.863478e+00
-7.885527e+00
-7.907218e+00
-7.927863e+00
-7.946812e+00
-7.963688e+00
-7.980792e+00
-7.996495e+00
-8.006922e+00
-8.014675e+00
-8.015447e+00
-8.008991e+00
-7.997392e+00
-7.982378e+00
-7.964210e+00
-7.942007e+00
-7.915378e+00
-7.883600e+00
-7.848431e+00
-7.811616e+00
-7.775078e+00
-7.736152e+00
-7.693645e+00
-7.646731e+00
-7.599606e+00
-7.550979e+00
-7.498108e+00
-7.442420e+00
-7.378203e+00
-7.303371e+00
-7.223825e+00
-7.149707e+00
-7.075494e+00
-6.994455e+00
-6.905439e+00
-6.810787e+00
-6.706954e+00
-6.601024e+00
-6.498207e+00
-6.394627e+00
-6.272121e+00
-6.131465e+00
-5.976460e+00
-5.810208e+00
-5.622276e+00
-5.420147e+00
-5.219370e+00
-5.025217e+00
-4.818723e+00
-4.609688e+00
-4.404446e+00
-4.194321e+00
-3.970808e+00
-3.726653e+00
-3.466789e+00
-3.227249e+00
-2.987228e+00
-2.749166e+00
-2.504997e+00
-2.263012e+00
-2.018642e+00
-1.787667e+00
-1.540397e+00
-1.272651e+00
-9.856886e-01
-6.904472e-01
-3.934713e-01
-9.063343e-02
2.163775e-01
5.345089e-01
8.660187e-01
1.207878e+00
1.551634e+00
1.893177e+00
2.228435e+00
2.552964e+00
2.855524e+00
3.146568e+00
3.438130e+00
3.721915e+00
4.002140e+00
4.282721e+00
4.542529e+00
4.802855e+00
5.061552e+00
5.285098e+00
5.498038e+00
5.698154e+00
5.852089e+00
5.822656e+00
5.472325e+00
3.907213e+00
2.591345e+00
1.012915e+00
3.662408e+00
7.801651e+00
-6.409329e+00
-6.809708e+00
-6.763152e+00
-6.883441e+00
-6.922421e+00
-6.927159e+00
-6.925878e+00
-6.923914e+00
-6.921856e+00
-6.921264e+00
-6.922205e+00
-6.923191e+00
-6.924484e+00
-6.925713e+00
-6.926984e+00
-6.928540e+00
-6.930231e+00
-6.932928e+00
-6.936513e+00
-6.940249e+00
-6.943030e+00
-6.944909e+00
-6.946907e+00
-6.949826e+00
-6.952657e+00
-6.957131e+00
-6.961851e+00
-6.967226e+00
-6.973456e+00
-6.979812e+00
-6.985964e+00
-6.991414e+00
-6.996282e+00
-7.001452e+00
-7.008440e+00
-7.017233e+00
-7.026881e+00
-7.036804e+00
-7.046332e+00
-7.054719e+00
-7.063023e+00
-7.069325e+00
-7.075904e+00
-7.084585e+00
-7.094993e+00
-7.108903e+00
-7.124437e+00
-7.140909e+00
-7.157671e+00
-7.174688e+00
-7.193248e+00
-7.213379e+00
-7.235172e+00
-7.255358e+00
-7.274750e+00
-7.295238e+00
-7.316598e+00
-7.340795e+00
-7.363837e+00
-7.386395e+00
-7.408452e+00
-7.432422e+00
-7.457683e+00
-7.485362e+00
-7.516084e+00
-7.549355e+00
-7.581377e+00
-7.612810e+00
-7.645443e+00
-7.675617e+00
-7.705071e+00
-7.733765e+00
-7.761230e+00
-7.787304e+00
-7.811518e+00
-7.838898e+00
-7.867674e+00
-7.897495e+00
-7.926895e+00
-7.955094e+00
-7.984531e+00
-8.012458e+00
-8.039126e+00
-8.065196e+00
-8.091606e+00
-8.119547e+00
-8.146119e+00
-8.171518e+00
-8.192151e+00
-8.211084e+00
-8.228835e+00
-8.241996e+00
-8.251368e+00
-8.255982e+00
-8.256489e+00
-8.251439e+00
-8.240674e+00
-8.224964e+00
-8.205197e+00
-8.179714e+00
-8.149910e+00
-8.119886e+00
-8.087275e+00
-8.053334e+00
-8.017413e+00
-7.978088e+00
-7.935224e+00
-7.887629e+00
-7.832346e+00
-7.772226e+00
-7.704931e+00
-7.633771e+00
-7.560481e+00
-7.478641e+00
-7.398576e+00
-7.313375e+00
-7.231533e+00
-7.137909e+00
-7.032233e+00
-6.916065e+00
-6.795733e+00
-6.675320e+00
-6.566590e+00
-6.472615e+00
-6.372281e+00
-6.267472e+00
-6.153329e+00
-6.025709e+00
-5.884109e+00
-5.729237e+00
-5.546709e+00
-5.360380e+00
-5.174490e+00
-4.991610e+00
-4.798375e+00
-4.599242e+00
-4.382668e+00
-4.136544e+00
-3.873925e+00
-3.622386e+00
-3.364130e+00
-3.115710e+00
-2.873095e+00
-2.619474e+00
-2.369242e+00
-2.111799e+00
-1.838050e+00
-1.555543e+00
-1.258306e+00
-9.597393e-01
-6.654578e-01
-3.546905e-01
-3.258340e-02
2.889608e-01
6.084910e-01
9.470175e-01
1.279294e+00
1.604750e+00
1.942142e+00
2.299409e+00
2.648368e+00
2.996857e+00
3.346372e+00
3.667706e+00
3.979814e+00
4.269368e+00
4.546234e+00
4.800528e+00
5.049444e+00
5.298739e+00
5.532815e+00
5.761576e+00
5.953206e+00
6.051427e+00
5.664999e+00
3.833994e+00
2.076661e+00
2.839737e-01
3.593698e+00
8.585554e+00
-6.513599e+00
-6.836789e+00
-6.799969e+00
-6.939616e+00
-6.976634e+00
-6.981794e+00
-6.982321e+00
-6.982824e+00
-6.985454e+00
-6.988555e+00
-6.992060e+00
-6.995948e+00
-7.000239e+00
-7.004660e+00
-7.010697e+00
-7.017362e+00
-7.024474e+00
-7.032100e+00
-7.040181e+00
-7.048588e+00
-7.056466e+00
-7.063301e+00
-7.069948e+00
-7.077083e+00
-7.084666e+00
-7.092186e+00
-7.098713e+00
-7.104725e+00
-7.111088e+00
-7.117286e+00
-7.122515e+00
-7.126125e+00
-7.128979e+00
-7.132444e+00
-7.136106e+00
-7.140030e+00
-7.144293e+00
-7.149540e+00
-7.154564e+00
-7.159795e+00
-7.165025e+00
-7.169924e+00
-7.176245e+00
-7.183528e+00
-7.190764e+00
-7.199699e+00
-7.210167e+00
-7.221894e+00
-7.235914e+00
-7.251387e+00
-7.267569e+00
-7.283439e+00
-7.301546e+00
-7.320048e+00
-7.338099e+00
-7.354735e+00
-7.371490e+00
-7.388786e+00
-7.412071e+00
-7.438710e+00
-7.466673e+00
-7.497244e+00
-7.528404e+00
-7.559333e+00
-7.588840e+00
-7.616260e+00
-7.644977e+00
-7.673907e+00
-7.701003e+00
-7.727872e+00
-7.753209e+00
-7.779524e+00
-7.805173e+00
-7.832875e+00
-7.861654e+00
-7.890357e+00
-7.918429e+00
-7.946126e+00
-7.972208e+00
-7.996780e+00
-8.022856e+00
-8.047798e+00
-8.070959e+00
-8.093072e+00
-8.116318e+00
-8.137527e+00
-8.155534e+00
-8.170908e+00
-8.182946e+00
-8.194987e+00
-8.206229e+00
-8.218389e+00
-8.224912e+00
-8.227247e+00
-8.224970e+00
-8.218686e+00
-8.206535e+00
-8.191873e+00
-8.177733e+00
-8.159777e+00
-8.137823e+00
-8.112792e+00
-8.083340e+00
-8.048871e+00
-8.013258e+00
-7.974207e+00
-7.932931e+00
-7.887565e+00
-7.836148e+00
-7.776650e+00
-7.708577e+00
-7.633157e+00
-7.557734e+00
-7.477853e+00
-7.391439e+00
-7.299215e+00
-7.200116e+00
-7.097445e+00
-6.986538e+00
-6.871184e+00
-6.751631e+00
-6.639578e+00
-6.546278e+00
-6.468415e+00
-6.384271e+00
-6.296734e+00
-6.201130e+00
-6.089244e+00
-5.966008e+00
-5.827289e+00
-5.672222e+00
-5.503873e+00
-5.339910e+00
-5.159524e+00
-4.956803e+00
-4.743537e+00
-4.514038e+00
-4.277339e+00
-4.029413e+00
-3.778380e+00
-3.525346e+00
-3.284858e+00
-3.057960e+00
-2.818508e+00
-2.568477e+00
-2.303274e+00
-2.008217e+00
-1.700313e+00
-1.405914e+00
-1.113336e+00
-8.109656e-01
-4.885953e-01
-1.440936e-01
2.076572e-01
5.618896e-01
9.110812e-01
1.250536e+00
1.599812e+00
1.969064e+00
2.328307e+00
2.676478e+00
3.032105e+00
3.367248e+00
3.685720e+00
3.981228e+00
4.263992e+00
4.539926e+00
4.807469e+00
5.058958e+00
5.290708e+00
5.521043e+00
5.752666e+00
5.941666e+00
6.029600e+00
5.693976e+00
3.859361e+00
2.035760e+00
4.142524e-01
4.010132e+00
9.104412e+00
-6.601264e+00
-6.814773e+00
-6.811689e+00
-6.974190e+00
-7.021216e+00
-7.029585e+00
-7.033430e+00
-7.036866e+00
-7.040696e+00
-7.044732e+00
-7.049134e+00
-7.055560e+00
-7.064600e+00
-7.073229e+00
-7.081376e+00
-7.090271e+00
-7.099023e+00
-7.107495e+00
-7.116292e+00
-7.124800e+00
-7.133066e+00
-7.140982e+00
-7.149252e+00
-7.156650e+00
-7.163210e+00
-7.170402e+00
-7.179318e+00
-7.187473e+00
-7.194441e+00
-7.199306e+00
-7.202728e+00
-7.205733e+00
-7.208613e+00
-7.211956e+00
-7.216512e+00
-7.220946e+00
-7.226921e+00
-7.233011e+00
-7.238755e+00
-7.244656e+00
-7.251341e+00
-7.257736e+00
-7.263407e+00
-7.268699e+00
-7.276791e+00
-7.285447e+00
-7.295967e+00
-7.309279e+00
-7.323989e+00
-7.340006e+00
-7.355105e+00
-7.367496e+00
-7.380968e+00
-7.393437e+00
-7.407477e+00
-7.424977e+00
-7.443756e+00
-7.463571e+00
-7.487167e+00
-7.510316e+00
-7.535960e+00
-7.561095e+00
-7.585054e+00
-7.609461e+00
-7.634283e+00
-7.659954e+00
-7.686511e+00
-7.712692e+00
-7.739500e+00
-7.765209e+00
-7.789860e+00
-7.813723e+00
-7.837435e+00
-7.863666e+00
-7.893234e+00
-7.920274e+00
-7.945376e+00
-7.967187e+00
-7.985726e+00
-8.002326e+00
-8.019909e+00
-8.037275e+00
-8.053884e+00
-8.068345e+00
-8.082003e+00
-8.094186e+00
-8.106079e+00
-8.117919e+00
-8.126292e+00
-8.133942e+00
-8.139286e+00
-8.142239e+00
-8.142936e+00
-8.143646e+00
-8.141953e+00
-8.141520e+00
-8.137528e+00
-8.129968e+00
-8.119671e+00
-8.106866e+00
-8.089741e+00
-8.068579e+00
-8.043309e+00
-8.014084e+00
-7.983792e+00
-7.948915e+00
-7.906739e+00
-7.861077e+00
-7.812476e+00
-7.757535e+00
-7.696184e+00
-7.632961e+00
-7.574503e+00
-7.507950e+00
-7.424876e+00
-7.331540e+00
-7.223296e+00
-7.109348e+00
-6.989138e+00
-6.872344e+00
-6.753418e+00
-6.645382e+00
-6.558869e+00
-6.481629e+00
-6.407814e+00
-6.325667e+00
-6.227138e+00
-6.117488e+00
-6.001366e+00
-5.872384e+00
-5.731455e+00
-5.594000e+00
-5.437549e+00
-5.253439e+00
-5.040952e+00
-4.822594e+00
-4.583006e+00
-4.332820e+00
-4.075110e+00
-3.809530e+00
-3.541930e+00
-3.284330e+00
-3.025946e+00
-2.754238e+00
-2.471928e+00
-2.183670e+00
-1.888960e+00
-1.603518e+00
-1.306253e+00
-1.003282e+00
-6.972057e-01
-3.789948e-01
-2.924801e-02
3.226098e-01
6.831531e-01
1.045265e+00
1.394190e+00
1.720984e+00
2.050437e+00
2.372096e+00
2.692816e+00
3.028878e+00
3.343110e+00
3.632689e+00
3.927333e+00
4.221131e+00
4.501742e+00
4.749738e+00
4.978843e+00
5.199305e+00
5.414071e+00
5.626213e+00
5.812160e+00
5.924441e+00
5.659564e+00
4.075372e+00
2.405293e+00
1.031782e+00
4.684713e+00
9.571139e+00
-6.668193e+00
-6.791038e+00
-6.833824e+00
-7.027701e+00
-7.077226e+00
-7.085040e+00
-7.088236e+00
-7.091864e+00
-7.095773e+00
-7.099484e+00
-7.103529e+00
-7.107813e+00
-7.112370e+00
-7.117232e+00
-7.124424e+00
-7.132614e+00
-7.140703e+00
-7.150138e+00
-7.160150e+00
-7.169458e+00
-7.178879e+00
-7.188075e+00
-7.197687e+00
-7.208027e+00
-7.218784e+00
-7.227775e+00
-7.235657e+00
-7.242295e+00
-7.249085e+00
-7.256282e+00
-7.263123e+00
-7.269488e+00
-7.276073e+00
-7.282055e+00
-7.288697e+00
-7.297280e+00
-7.306156e+00
-7.313669e+00
-7.321560e+00
-7.331306e+00
-7.341781e+00
-7.351819e+00
-7.363163e+00
-7.374345e+00
-7.384825e+00
-7.395487e+00
-7.406718e+00
-7.416905e+00
-7.426210e+00
-7.436136e+00
-7.446425e+00
-7.457223e+00
-7.468837e+00
-7.482211e+00
-7.498962e+00
-7.517386e+00
-7.536026e+00
-7.554552e+00
-7.571031e+00
-7.587050e+00
-7.600441e+00
-7.613629e+00
-7.634166e+00
-7.656461e+00
-7.682494e+00
-7.710025e+00
-7.737446e+00
-7.764360e+00
-7.791258e+00
-7.818578e+00
-7.843242e+00
-7.866529e+00
-7.888556e+00
-7.911996e+00
-7.934157e+00
-7.953395e+00
-7.970695e+00
-7.985224e+00
-7.998662e+00
-8.008887e+00
-8.017188e+00
-8.025497e+00
-8.033934e+00
-8.042869e+00
-8.053307e+00
-8.062214e+00
-8.067187e+00
-8.067123e+00
-8.065465e+00
-8.065217e+00
-8.066692e+00
-8.072057e+00
-8.078282e+00
-8.082327e+00
-8.085020e+00
-8.087539e+00
-8.089104e+00
-8.084736e+00
-8.075518e+00
-8.064468e+00
-8.053470e+00
-8.038780e+00
-8.017066e+00
-7.992626e+00
-7.964857e+00
-7.934682e+00
-7.898689e+00
-7.860178e+00
-7.823015e+00
-7.784969e+00
-7.742185e+00
-7.692376e+00
-7.630812e+00
-7.556982e+00
-7.466726e+00
-7.365173e+00
-7.252814e+00
-7.138588e+00
-7.022330e+00
-6.904593e+00
-6.791184e+00
-6.691300e+00
-6.608184e+00
-6.529217e+00
-6.439314e+00
-6.345064e+00
-6.238507e+00
-6.122493e+00
-5.997947e+00
-5.870010e+00
-5.739316e+00
-5.602150e+00
-5.449383e+00
-5.264514e+00
-5.049988e+00
-4.820838e+00
-4.573196e+00
-4.311192e+00
-4.046875e+00
-3.775521e+00
-3.493022e+00
-3.199081e+00
-2.894988e+00
-2.596536e+00
-2.288083e+00
-1.979275e+00
-1.707972e+00
-1.438312e+00
-1.143623e+00
-8.258136e-01
-4.914635e-01
-1.551698e-01
1.918373e-01
5.323308e-01
8.670699e-01
1.179750e+00
1.466454e+00
1.749087e+00
2.044320e+00
2.344164e+00
2.637223e+00
2.931122e+00
3.216813e+00
3.507373e+00
3.795151e+00
4.083194e+00
4.365972e+00
4.635508e+00
4.888536e+00
5.127811e+00
5.369660e+00
5.597070e+00
5.793710e+00
5.906867e+00
5.628608e+00
4.307582e+00
2.792859e+00
1.738651e+00
5.395943e+00
9.982399e+00
-6.735886e+00
-6.765123e+00
-6.849818e+00
-7.074206e+00
-7.127526e+00
-7.134073e+00
-7.137365e+00
-7.141346e+00
-7.145590e+00
-7.149892e+00
-7.154727e+00
-7.161012e+00
-7.166812e+00
-7.172018e+00
-7.176429e+00
-7.181255e+00
-7.189130e+00
-7.196479e+00
-7.203911e+00
-7.211238e+00
-7.218531e+00
-7.225835e+00
-7.233683e+00
-7.242613e+00
-7.251870e+00
-7.260720e+00
-7.269422e+00
-7.277019e+00
-7.285759e+00
-7.295276e+00
-7.304650e+00
-7.313586e+00
-7.322345e+00
-7.331653e+00
-7.341498e+00
-7.353035e+00
-7.364965e+00
-7.376000e+00
-7.386032e+00
-7.395658e+00
-7.405602e+00
-7.413726e+00
-7.422388e+00
-7.432019e+00
-7.441342e+00
-7.453560e+00
-7.466626e+00
-7.479093e+00
-7.491170e+00
-7.503665e+00
-7.517843e+00
-7.532163e+00
-7.546385e+00
-7.562163e+00
-7.577731e+00
-7.591825e+00
-7.605398e+00
-7.620422e+00
-7.635802e+00
-7.647931e+00
-7.659363e+00
-7.672162e+00
-7.687389e+00
-7.703842e+00
-7.725360e+00
-7.752047e+00
-7.781152e+00
-7.808564e+00
-7.835143e+00
-7.861722e+00
-7.886089e+00
-7.909632e+00
-7.931377e+00
-7.951888e+00
-7.970717e+00
-7.987035e+00
-7.998979e+00
-8.007491e+00
-8.013739e+00
-8.018180e+00
-8.021586e+00
-8.024734e+00
-8.029890e+00
-8.033230e+00
-8.034506e+00
-8.034030e+00
-8.033500e+00
-8.036355e+00
-8.038090e+00
-8.040535e+00
-8.042401e+00
-8.048761e+00
-8.053160e+00
-8.058088e+00
-8.062163e+00
-8.067310e+00
-8.067625e+00
-8.070386e+00
-8.072748e+00
-8.072253e+00
-8.066193e+00
-8.052640e+00
-8.033178e+00
-8.012558e+00
-7.996429e+00
-7.979274e+00
-7.964289e+00
-7.947291e+00
-7.927260e+00
-7.901829e+00
-7.868877e+00
-7.813468e+00
-7.751443e+00
-7.669039e+00
-7.576097e+00
-7.471033e+00
-7.357645e+00
-7.233779e+00
-7.103155e+00
-6.980912e+00
-6.870221e+00
-6.770567e+00
-6.679853e+00
-6.592052e+00
-6.495938e+00
-6.386828e+00
-6.266933e+00
-6.134088e+00
-5.990666e+00
-5.845400e+00
-5.689232e+00
-5.540587e+00
-5.374173e+00
-5.181788e+00
-4.962364e+00
-4.712446e+00
-4.443131e+00
-4.177122e+00
-3.917293e+00
-3.651086e+00
-3.359733e+00
-3.051943e+00
-2.740081e+00
-2.425485e+00
-2.124654e+00
-1.822412e+00
-1.535877e+00
-1.235615e+00
-9.185204e-01
-6.112183e-01
-3.187052e-01
-1.759021e-02
2.705945e-01
5.642835e-01
8.612609e-01
1.152564e+00
1.426458e+00
1.691183e+00
1.954996e+00
2.238049e+00
2.510508e+00
2.768823e+00
3.040181e+00
3.314671e+00
3.608195e+00
3.916311e+00
4.222467e+00
4.504316e+00
4.781663e+00
5.045576e+00
5.294100e+00
5.542961e+00
5.771706e+00
5.891646e+00
5.607358e+00
4.507647e+00
3.167012e+00
2.424130e+00
6.036242e+00
1.037320e+01
-6.813195e+00
-6.740625e+00
-6.884345e+00
-7.128253e+00
-7.185000e+00
-7.191009e+00
-7.192934e+00
-7.195529e+00
-7.197750e+00
-7.199465e+00
-7.201896e+00
-7.205393e+00
-7.208994e+00
-7.212669e+00
-7.217198e+00
-7.222029e+00
-7.227097e+00
-7.234743e+00
-7.243824e+00
-7.252688e+00
-7.262565e+00
-7.272923e+00
-7.283070e+00
-7.292940e+00
-7.302265e+00
-7.310905e+00
-7.318413e+00
-7.325789e+00
-7.334190e+00
-7.342672e+00
-7.350858e+00
-7.357770e+00
-7.366574e+00
-7.374995e+00
-7.384615e+00
-7.394735e+00
-7.403771e+00
-7.413203e+00
-7.421654e+00
-7.431078e+00
-7.441188e+00
-7.449576e+00
-7.456556e+00
-7.463970e+00
-7.473259e+00
-7.485403e+00
-7.500555e+00
-7.515916e+00
-7.532782e+00
-7.549694e+00
-7.566779e+00
-7.582871e+00
-7.596879e+00
-7.610589e+00
-7.624668e+00
-7.638160e+00
-7.650185e+00
-7.659080e+00
-7.668522e+00
-7.677897e+00
-7.689722e+00
-7.705176e+00
-7.725237e+00
-7.748002e+00
-7.770227e+00
-7.793166e+00
-7.820752e+00
-7.849253e+00
-7.875166e+00
-7.899594e+00
-7.920626e+00
-7.938074e+00
-7.951800e+00
-7.964961e+00
-7.979397e+00
-7.992222e+00
-8.003543e+00
-8.011907e+00
-8.018011e+00
-8.021352e+00
-8.027125e+00
-8.033222e+00
-8.037284e+00
-8.042157e+00
-8.046383e+00
-8.050265e+00
-8.053812e+00
-8.055676e+00
-8.056557e+00
-8.058574e+00
-8.064031e+00
-8.072290e+00
-8.077715e+00
-8.079669e+00
-8.080628e+00
-8.080822e+00
-8.089155e+00
-8.095954e+00
-8.106739e+00
-8.122432e+00
-8.130507e+00
-8.127592e+00
-8.118148e+00
-8.109521e+00
-8.103165e+00
-8.095542e+00
-8.084138e+00
-8.075235e+00
-8.064756e+00
-8.038317e+00
-7.997034e+00
-7.932141e+00
-7.856210e+00
-7.778809e+00
-7.689293e+00
-7.585719e+00
-7.461273e+00