/*--------------------------------*- C++ -*----------------------------------*\
| =========                 |                                                 |
| \\      /  F ield         | OpenFOAM: The Open Source CFD Toolbox           |
|  \\    /   O peration     | Version:  v2406                                 |
|   \\  /    A nd           | Website:  www.openfoam.com                      |
|    \\/     M anipulation  |                                                 |
\*---------------------------------------------------------------------------*/
FoamFile
{
    version     2.0;
    format      ascii;
    class       volVectorField;
    location    "predicted";
    object      U;
}
// * * * * * * * * * * * * * * * * * * * * * * * * * * * * * * * * * * * * * //

dimensions      [0 1 -1 0 0 0 0];

internalField   nonuniform List<vector>
49181
(
(5.975371e+00 -2.450527e-02 -1.522925e-01)
(6.531671e+00 -7.765541e-02 -2.995222e-02)
(6.646188e+00 -3.160650e-02 -8.392082e-02)
(6.612921e+00 -1.552165e-02 -9.429192e-02)
(6.569380e+00 -9.277347e-03 -1.017359e-01)
(6.545175e+00 -8.058188e-03 -1.033845e-01)
(6.520530e+00 -7.116024e-03 -1.049126e-01)
(6.477001e+00 -5.477644e-03 -1.071427e-01)
(6.404901e+00 -1.549566e-03 -1.099944e-01)
(6.294381e+00 2.388220e-03 -1.121158e-01)
(6.218256e+00 7.107620e-03 -1.149827e-01)
(6.192444e+00 8.534738e-03 -1.162697e-01)
(6.205093e+00 7.851331e-03 -1.159101e-01)
(6.244455e+00 6.892232e-03 -1.147705e-01)
(6.291495e+00 4.766203e-03 -1.126032e-01)
(6.340940e+00 1.596322e-03 -1.113660e-01)
(6.317122e+00 -1.839525e-02 -9.581381e-02)
(6.135024e+00 -5.574790e-03 -1.418641e-01)
(6.563874e+00 -7.943285e-02 -2.725716e-02)
(7.471798e+00 -4.188117e-02 -3.250453e-02)
(7.772797e+00 -4.383369e-02 -3.945647e-02)
(7.787525e+00 -3.643907e-02 -4.573131e-02)
(7.776925e+00 -3.335393e-02 -4.457427e-02)
(7.726169e+00 -3.332583e-02 -4.395623e-02)
(7.667297e+00 -3.305620e-02 -4.324006e-02)
(7.586995e+00 -3.196983e-02 -4.200128e-02)
(7.461060e+00 -3.043497e-02 -3.978334e-02)
(7.296202e+00 -2.696136e-02 -3.735049e-02)
(7.185616e+00 -2.542454e-02 -3.593290e-02)
(7.140497e+00 -2.458518e-02 -3.540630e-02)
(7.173038e+00 -2.508373e-02 -3.517855e-02)
(7.282819e+00 -2.587448e-02 -3.821170e-02)
(7.423328e+00 -2.732728e-02 -4.141288e-02)
(7.518183e+00 -2.818734e-02 -4.209458e-02)
(7.399422e+00 -3.183611e-02 -3.979770e-02)
(7.069456e+00 -4.170482e-02 -2.758868e-02)
(6.785315e+00 -3.685880e-02 -7.434114e-02)
(7.943705e+00 -4.663059e-02 -3.383764e-02)
(8.387308e+00 -4.913111e-02 -2.577493e-02)
(8.640595e+00 -4.922380e-02 -2.698559e-02)
(8.675955e+00 -4.981221e-02 -2.900582e-02)
(8.668652e+00 -5.081354e-02 -2.977690e-02)
(8.652465e+00 -5.190413e-02 -3.033873e-02)
(8.617915e+00 -5.248091e-02 -3.132484e-02)
(8.556278e+00 -5.219185e-02 -3.264217e-02)
(8.476642e+00 -5.218125e-02 -3.459249e-02)
(8.421502e+00 -5.124986e-02 -3.570205e-02)
(8.407501e+00 -5.182115e-02 -3.573260e-02)
(8.417987e+00 -5.227108e-02 -3.563467e-02)
(8.491926e+00 -5.119959e-02 -3.410078e-02)
(8.581182e+00 -4.989700e-02 -3.222210e-02)
(8.650095e+00 -4.919316e-02 -3.000951e-02)
(8.653471e+00 -4.940387e-02 -2.941293e-02)
(8.561855e+00 -5.173501e-02 -3.377952e-02)
(6.839797e+00 -2.737892e-02 -7.791461e-02)
(8.197948e+00 -4.186699e-02 -3.973944e-02)
(8.758003e+00 -5.189757e-02 -2.270162e-02)
(8.961684e+00 -5.060289e-02 -2.564068e-02)
(9.028539e+00 -4.963469e-02 -2.691363e-02)
(9.040490e+00 -4.990752e-02 -2.738276e-02)
(9.047749e+00 -5.047100e-02 -2.735296e-02)
(9.051073e+00 -5.106121e-02 -2.702365e-02)
(9.043993e+00 -5.190774e-02 -2.765402e-02)
(9.023802e+00 -5.206873e-02 -2.848175e-02)
(9.024772e+00 -5.226482e-02 -2.942002e-02)
(9.004934e+00 -5.296578e-02 -2.857629e-02)
(9.005449e+00 -5.357653e-02 -2.848960e-02)
(9.036477e+00 -5.148837e-02 -2.783675e-02)
(9.056636e+00 -4.988250e-02 -2.748345e-02)
(9.079265e+00 -5.028671e-02 -2.629822e-02)
(9.082607e+00 -5.082443e-02 -2.651197e-02)
(9.099631e+00 -5.029186e-02 -2.712594e-02)
(6.882399e+00 -2.833607e-02 -7.853599e-02)
(8.403876e+00 -4.238934e-02 -3.367073e-02)
(8.894036e+00 -5.412793e-02 -2.366966e-02)
(9.090224e+00 -5.304339e-02 -2.754970e-02)
(9.153628e+00 -5.297798e-02 -2.791542e-02)
(9.171924e+00 -5.373321e-02 -2.750537e-02)
(9.182196e+00 -5.417535e-02 -2.694061e-02)
(9.189947e+00 -5.431338e-02 -2.628645e-02)
(9.197392e+00 -5.425854e-02 -2.575856e-02)
(9.202203e+00 -5.426389e-02 -2.562809e-02)
(9.205030e+00 -5.390193e-02 -2.582192e-02)
(9.203680e+00 -5.442065e-02 -2.570852e-02)
(9.188153e+00 -5.492932e-02 -2.560027e-02)
(9.195417e+00 -5.436993e-02 -2.599181e-02)
(9.195795e+00 -5.397580e-02 -2.782253e-02)
(9.206380e+00 -5.343769e-02 -2.867899e-02)
(9.209614e+00 -5.386176e-02 -2.873524e-02)
(9.235941e+00 -5.420748e-02 -2.760508e-02)
(6.941599e+00 -3.307360e-02 -7.303920e-02)
(8.551994e+00 -4.617348e-02 -2.649278e-02)
(8.941184e+00 -5.678057e-02 -2.532723e-02)
(9.117049e+00 -5.542344e-02 -2.918376e-02)
(9.180938e+00 -5.417366e-02 -2.999668e-02)
(9.203415e+00 -5.415047e-02 -3.020824e-02)
(9.222032e+00 -5.422076e-02 -3.041388e-02)
(9.239447e+00 -5.437193e-02 -3.063336e-02)
(9.254296e+00 -5.467535e-02 -3.072287e-02)
(9.264577e+00 -5.500119e-02 -3.077451e-02)
(9.272041e+00 -5.536036e-02 -3.074951e-02)
(9.270824e+00 -5.583748e-02 -3.064032e-02)
(9.250236e+00 -5.622842e-02 -3.054811e-02)
(9.249025e+00 -5.476026e-02 -3.067312e-02)
(9.224361e+00 -5.432992e-02 -3.065850e-02)
(9.214109e+00 -5.433267e-02 -3.082442e-02)
(9.217254e+00 -5.461393e-02 -3.098827e-02)
(9.275822e+00 -5.409165e-02 -3.109036e-02)
(7.003438e+00 -3.771651e-02 -6.725054e-02)
(8.691306e+00 -4.894586e-02 -2.078527e-02)
(8.943763e+00 -6.073668e-02 -2.366052e-02)
(9.094445e+00 -5.903601e-02 -2.560354e-02)
(9.157695e+00 -5.729764e-02 -2.743624e-02)
(9.176972e+00 -5.689764e-02 -2.837160e-02)
(9.194479e+00 -5.666428e-02 -2.917649e-02)
(9.212480e+00 -5.654082e-02 -2.986662e-02)
(9.228954e+00 -5.637850e-02 -3.037550e-02)
(9.243380e+00 -5.626252e-02 -3.072732e-02)
(9.252725e+00 -5.614350e-02 -3.108793e-02)
(9.251947e+00 -5.628059e-02 -3.128449e-02)
(9.229119e+00 -5.679932e-02 -3.115566e-02)
(9.224281e+00 -5.654147e-02 -3.029895e-02)
(9.195902e+00 -5.693054e-02 -2.845835e-02)
(9.184413e+00 -5.722837e-02 -2.717760e-02)
(9.186133e+00 -5.741185e-02 -2.741362e-02)
(9.244479e+00 -5.637470e-02 -2.924144e-02)
(7.063083e+00 -4.180905e-02 -6.209341e-02)
(8.784786e+00 -5.144397e-02 -1.797120e-02)
(8.935364e+00 -6.325840e-02 -1.909843e-02)
(9.073596e+00 -6.107219e-02 -2.136205e-02)
(9.122592e+00 -5.911536e-02 -2.350423e-02)
(9.138885e+00 -5.866408e-02 -2.453966e-02)
(9.153288e+00 -5.841799e-02 -2.536359e-02)
(9.166726e+00 -5.818193e-02 -2.609698e-02)
(9.178929e+00 -5.805544e-02 -2.677326e-02)
(9.189663e+00 -5.793353e-02 -2.743467e-02)
(9.197674e+00 -5.783847e-02 -2.804090e-02)
(9.196277e+00 -5.792004e-02 -2.839052e-02)
(9.179437e+00 -5.841250e-02 -2.820031e-02)
(9.176188e+00 -5.818722e-02 -2.666454e-02)
(9.151947e+00 -5.863853e-02 -2.462807e-02)
(9.142906e+00 -5.895694e-02 -2.299105e-02)
(9.142847e+00 -5.906938e-02 -2.330357e-02)
(9.190647e+00 -5.813480e-02 -2.549486e-02)
(7.132519e+00 -4.579039e-02 -5.570289e-02)
(8.847784e+00 -5.457163e-02 -1.695126e-02)
(8.915996e+00 -6.532472e-02 -1.495861e-02)
(9.045822e+00 -6.235933e-02 -1.639617e-02)
(9.091128e+00 -6.051477e-02 -1.798910e-02)
(9.103242e+00 -5.991665e-02 -1.893100e-02)
(9.112342e+00 -5.950511e-02 -1.979378e-02)
(9.118775e+00 -5.918408e-02 -2.082130e-02)
(9.124925e+00 -5.891995e-02 -2.184430e-02)
(9.129444e+00 -5.870736e-02 -2.279307e-02)
(9.133827e+00 -5.858496e-02 -2.353421e-02)
(9.134417e+00 -5.862012e-02 -2.409033e-02)
(9.119744e+00 -5.904618e-02 -2.389907e-02)
(9.123977e+00 -5.913455e-02 -2.173766e-02)
(9.111162e+00 -5.982636e-02 -1.901329e-02)
(9.108957e+00 -6.018022e-02 -1.744006e-02)
(9.105975e+00 -6.028477e-02 -1.764424e-02)
(9.139191e+00 -5.930308e-02 -1.991366e-02)
(7.212313e+00 -4.918017e-02 -4.948724e-02)
(8.888617e+00 -5.739842e-02 -1.763348e-02)
(8.898433e+00 -6.677897e-02 -1.000991e-02)
(9.021345e+00 -6.308059e-02 -1.138899e-02)
(9.064465e+00 -6.131854e-02 -1.303514e-02)
(9.075358e+00 -6.083108e-02 -1.400991e-02)
(9.082370e+00 -6.049138e-02 -1.491072e-02)
(9.088941e+00 -6.013933e-02 -1.580848e-02)
(9.095451e+00 -5.972516e-02 -1.676224e-02)
(9.100873e+00 -5.931740e-02 -1.765816e-02)
(9.104364e+00 -5.900397e-02 -1.846897e-02)
(9.102615e+00 -5.895407e-02 -1.922656e-02)
(9.090194e+00 -5.938494e-02 -1.894576e-02)
(9.092048e+00 -5.991262e-02 -1.677294e-02)
(9.080724e+00 -6.075361e-02 -1.421883e-02)
(9.080589e+00 -6.110222e-02 -1.249749e-02)
(9.075600e+00 -6.118934e-02 -1.276235e-02)
(9.101317e+00 -6.024058e-02 -1.522215e-02)
(7.304954e+00 -5.250356e-02 -4.388966e-02)
(8.909266e+00 -5.933935e-02 -1.852335e-02)
(8.898901e+00 -6.749104e-02 -6.128125e-03)
(9.008700e+00 -6.445359e-02 -7.389717e-03)
(9.046156e+00 -6.272832e-02 -8.836128e-03)
(9.055154e+00 -6.221454e-02 -9.789648e-03)
(9.061873e+00 -6.182576e-02 -1.066047e-02)
(9.067699e+00 -6.142336e-02 -1.152161e-02)
(9.073553e+00 -6.103295e-02 -1.239242e-02)
(9.079874e+00 -6.067679e-02 -1.327366e-02)
(9.084562e+00 -6.037647e-02 -1.409995e-02)
(9.084217e+00 -6.024110e-02 -1.475173e-02)
(9.071332e+00 -6.070549e-02 -1.452946e-02)
(9.071646e+00 -6.119613e-02 -1.243585e-02)
(9.060073e+00 -6.205462e-02 -1.011172e-02)
(9.062793e+00 -6.234267e-02 -8.694633e-03)
(9.057644e+00 -6.241186e-02 -8.945790e-03)
(9.079409e+00 -6.146667e-02 -1.111559e-02)
(7.385789e+00 -5.351657e-02 -3.974343e-02)
(8.911477e+00 -6.150114e-02 -1.785395e-02)
(8.902980e+00 -6.818582e-02 -3.420806e-03)
(9.009882e+00 -6.502643e-02 -5.165172e-03)
(9.037566e+00 -6.362069e-02 -6.483078e-03)
(9.045317e+00 -6.310162e-02 -7.353065e-03)
(9.049853e+00 -6.275662e-02 -8.200310e-03)
(9.054237e+00 -6.243923e-02 -8.996582e-03)
(9.058764e+00 -6.209447e-02 -9.774632e-03)
(9.062624e+00 -6.179457e-02 -1.056022e-02)
(9.065513e+00 -6.154986e-02 -1.127185e-02)
(9.063798e+00 -6.152544e-02 -1.170900e-02)
(9.050144e+00 -6.200569e-02 -1.140793e-02)
(9.056217e+00 -6.226919e-02 -9.733481e-03)
(9.049385e+00 -6.289066e-02 -7.704006e-03)
(9.055086e+00 -6.316659e-02 -6.381344e-03)
(9.050544e+00 -6.314941e-02 -6.582847e-03)
(9.068143e+00 -6.229038e-02 -8.600032e-03)
(7.469389e+00 -5.362973e-02 -3.659484e-02)
(8.897269e+00 -6.363218e-02 -1.476352e-02)
(8.911443e+00 -6.841027e-02 -1.558285e-03)
(9.008480e+00 -6.529794e-02 -3.386856e-03)
(9.034408e+00 -6.409174e-02 -4.576669e-03)
(9.038502e+00 -6.386231e-02 -5.313927e-03)
(9.041654e+00 -6.360479e-02 -5.987483e-03)
(9.045225e+00 -6.325512e-02 -6.757843e-03)
(9.048119e+00 -6.290727e-02 -7.591886e-03)
(9.050092e+00 -6.257083e-02 -8.404897e-03)
(9.051944e+00 -6.227340e-02 -9.119148e-03)
(9.050243e+00 -6.221782e-02 -9.531138e-03)
(9.037578e+00 -6.271183e-02 -9.222425e-03)
(9.045499e+00 -6.308687e-02 -7.536669e-03)
(9.042455e+00 -6.368153e-02 -5.573235e-03)
(9.052020e+00 -6.360429e-02 -4.470767e-03)
(9.046180e+00 -6.369858e-02 -4.618866e-03)
(9.060561e+00 -6.306558e-02 -6.435727e-03)
(7.550737e+00 -5.409070e-02 -3.510041e-02)
(8.887855e+00 -6.524634e-02 -1.207872e-02)
(8.913282e+00 -6.868400e-02 1.436376e-04)
(9.004428e+00 -6.558534e-02 -1.802621e-03)
(9.032220e+00 -6.450516e-02 -2.883645e-03)
(9.034416e+00 -6.424127e-02 -3.650979e-03)
(9.036934e+00 -6.407674e-02 -4.292083e-03)
(9.038721e+00 -6.390962e-02 -4.899391e-03)
(9.040383e+00 -6.371793e-02 -5.588308e-03)
(9.043304e+00 -6.337455e-02 -6.355768e-03)
(9.044520e+00 -6.305788e-02 -7.084520e-03)
(9.042163e+00 -6.298447e-02 -7.538456e-03)
(9.029851e+00 -6.351536e-02 -7.196398e-03)
(9.037299e+00 -6.390301e-02 -5.487091e-03)
(9.039169e+00 -6.404617e-02 -3.875613e-03)
(9.053492e+00 -6.386763e-02 -2.830992e-03)
(9.046982e+00 -6.390564e-02 -2.994539e-03)
(9.055437e+00 -6.352746e-02 -4.603674e-03)
(7.625542e+00 -5.504695e-02 -3.522499e-02)
(8.877838e+00 -6.673006e-02 -8.808998e-03)
(8.907331e+00 -6.870349e-02 1.954047e-03)
(9.002464e+00 -6.565249e-02 -4.710039e-04)
(9.031741e+00 -6.454320e-02 -1.584711e-03)
(9.036961e+00 -6.435045e-02 -2.276742e-03)
(9.035961e+00 -6.419279e-02 -2.881632e-03)
(9.036410e+00 -6.406470e-02 -3.505772e-03)
(9.037783e+00 -6.399244e-02 -4.099934e-03)
(9.037589e+00 -6.394279e-02 -4.672677e-03)
(9.036998e+00 -6.392566e-02 -5.218563e-03)
(9.033891e+00 -6.395805e-02 -5.627250e-03)
(9.020515e+00 -6.448927e-02 -5.290822e-03)
(9.034454e+00 -6.412636e-02 -3.958528e-03)
(9.041273e+00 -6.414439e-02 -2.398269e-03)
(9.054745e+00 -6.388024e-02 -1.316984e-03)
(9.049202e+00 -6.398281e-02 -1.490007e-03)
(9.055507e+00 -6.354967e-02 -3.174251e-03)
(7.697851e+00 -5.637262e-02 -3.531107e-02)
(8.865813e+00 -6.758283e-02 -5.702008e-03)
(8.900148e+00 -6.862360e-02 3.757620e-03)
(8.998886e+00 -6.587264e-02 6.734805e-04)
(9.025819e+00 -6.459441e-02 -2.279029e-04)
(9.031603e+00 -6.449956e-02 -9.620950e-04)
(9.033437e+00 -6.445283e-02 -1.552157e-03)
(9.034040e+00 -6.432992e-02 -2.126443e-03)
(9.032841e+00 -6.421106e-02 -2.699850e-03)
(9.033057e+00 -6.413771e-02 -3.263575e-03)
(9.032925e+00 -6.413389e-02 -3.760338e-03)
(9.028266e+00 -6.431623e-02 -4.085876e-03)
(9.015773e+00 -6.466987e-02 -3.787568e-03)
(9.030734e+00 -6.435782e-02 -2.491983e-03)
(9.036570e+00 -6.427282e-02 -8.702581e-04)
(9.046036e+00 -6.378835e-02 3.526911e-04)
(9.040028e+00 -6.386684e-02 2.090690e-04)
(9.054275e+00 -6.380043e-02 -1.524538e-03)
(7.754813e+00 -5.747041e-02 -3.524395e-02)
(8.850140e+00 -6.792457e-02 -2.814298e-03)
(8.890529e+00 -6.817286e-02 5.437793e-03)
(8.991383e+00 -6.607225e-02 2.090747e-03)
(9.014969e+00 -6.484548e-02 9.221215e-04)
(9.019060e+00 -6.460434e-02 4.909899e-04)
(9.020952e+00 -6.457996e-02 -4.497632e-05)
(9.022319e+00 -6.458960e-02 -5.625549e-04)
(9.023658e+00 -6.459213e-02 -1.113200e-03)
(9.024027e+00 -6.453547e-02 -1.637832e-03)
(9.022274e+00 -6.446005e-02 -2.128283e-03)
(9.016780e+00 -6.459935e-02 -2.478702e-03)
(9.005437e+00 -6.498033e-02 -2.147569e-03)
(9.020144e+00 -6.470690e-02 -8.620829e-04)
(9.022576e+00 -6.448910e-02 6.671550e-04)
(9.035879e+00 -6.444989e-02 1.511587e-03)
(9.027808e+00 -6.448323e-02 1.463149e-03)
(9.038663e+00 -6.387895e-02 3.179253e-04)
(7.800666e+00 -5.859219e-02 -3.309091e-02)
(8.833062e+00 -6.775536e-02 -6.897661e-04)
(8.874813e+00 -6.775665e-02 7.074831e-03)
(8.976636e+00 -6.625653e-02 3.280904e-03)
(9.000581e+00 -6.543542e-02 2.235786e-03)
(9.002861e+00 -6.524853e-02 1.676948e-03)
(9.002684e+00 -6.516426e-02 1.296839e-03)
(9.003671e+00 -6.512534e-02 8.594623e-04)
(9.004037e+00 -6.503112e-02 4.451987e-04)
(9.004849e+00 -6.497213e-02 -2.778006e-05)
(9.004774e+00 -6.499086e-02 -5.136534e-04)
(8.999951e+00 -6.519283e-02 -8.505938e-04)
(8.988012e+00 -6.558098e-02 -5.540941e-04)
(9.000291e+00 -6.522931e-02 7.189448e-04)
(9.004626e+00 -6.531953e-02 2.088560e-03)
(9.019867e+00 -6.520246e-02 2.965477e-03)
(9.012207e+00 -6.528775e-02 2.981347e-03)
(9.019529e+00 -6.461000e-02 1.873333e-03)
(7.817672e+00 -5.884911e-02 -3.276533e-02)
(8.840646e+00 -6.774859e-02 6.424013e-04)
(8.865625e+00 -6.752334e-02 8.043750e-03)
(8.962493e+00 -6.608285e-02 4.397192e-03)
(8.993967e+00 -6.570760e-02 3.367600e-03)
(8.994143e+00 -6.583785e-02 3.001320e-03)
(8.990890e+00 -6.587428e-02 2.727064e-03)
(8.989090e+00 -6.582965e-02 2.375950e-03)
(8.988815e+00 -6.569817e-02 1.969714e-03)
(8.990098e+00 -6.557860e-02 1.538028e-03)
(8.989485e+00 -6.551066e-02 1.111789e-03)
(8.984300e+00 -6.567428e-02 7.892367e-04)
(8.971758e+00 -6.606102e-02 1.062991e-03)
(8.984097e+00 -6.595178e-02 2.346246e-03)
(8.996348e+00 -6.572831e-02 3.475413e-03)
(9.011121e+00 -6.511355e-02 4.207268e-03)
(9.004742e+00 -6.520940e-02 4.278835e-03)
(9.011867e+00 -6.514192e-02 3.560368e-03)
(7.710713e+00 -5.575504e-02 -2.504930e-02)
(8.861531e+00 -6.731982e-02 -6.598012e-05)
(8.895957e+00 -6.640798e-02 8.489728e-03)
(8.985028e+00 -6.507040e-02 5.412864e-03)
(9.016285e+00 -6.488920e-02 4.390790e-03)
(9.016954e+00 -6.514634e-02 4.034641e-03)
(9.014006e+00 -6.529245e-02 3.821958e-03)
(9.011530e+00 -6.532881e-02 3.531296e-03)
(9.010182e+00 -6.527766e-02 3.174291e-03)
(9.009085e+00 -6.521137e-02 2.731967e-03)
(9.007199e+00 -6.521432e-02 2.257184e-03)
(9.001049e+00 -6.541143e-02 1.958221e-03)
(8.987906e+00 -6.574994e-02 2.185432e-03)
(9.005403e+00 -6.549800e-02 3.585393e-03)
(9.016631e+00 -6.512507e-02 4.573009e-03)
(9.031576e+00 -6.437199e-02 5.248422e-03)
(9.030099e+00 -6.447364e-02 5.083439e-03)
(9.038662e+00 -6.425413e-02 4.906363e-03)
(7.424532e+00 -6.159812e-02 -3.416640e-02)
(8.891771e+00 -6.734422e-02 -1.452278e-03)
(8.928461e+00 -6.605202e-02 6.596516e-03)
(9.020958e+00 -6.513558e-02 4.293616e-03)
(9.042821e+00 -6.473200e-02 3.483603e-03)
(9.043276e+00 -6.467738e-02 2.980186e-03)
(9.041891e+00 -6.461554e-02 2.523535e-03)
(9.040456e+00 -6.450153e-02 2.074857e-03)
(9.041080e+00 -6.443282e-02 1.630662e-03)
(9.041710e+00 -6.441119e-02 1.154342e-03)
(9.040391e+00 -6.437296e-02 7.736435e-04)
(9.032134e+00 -6.450736e-02 4.964450e-04)
(9.018470e+00 -6.501042e-02 7.380850e-04)
(9.033060e+00 -6.463694e-02 2.231883e-03)
(9.042035e+00 -6.468357e-02 3.692015e-03)
(9.057675e+00 -6.426069e-02 4.003278e-03)
(9.060740e+00 -6.378478e-02 4.409609e-03)
(9.035212e+00 -6.459558e-02 1.329236e-03)
(6.720968e+00 -6.607974e-02 -5.113519e-02)
(8.754512e+00 -6.581114e-02 -1.827806e-02)
(8.859749e+00 -6.747903e-02 1.324367e-03)
(8.949508e+00 -6.679872e-02 -4.567491e-05)
(8.973207e+00 -6.603507e-02 -5.871957e-04)
(8.977055e+00 -6.591199e-02 -1.148726e-03)
(8.979087e+00 -6.581891e-02 -1.665396e-03)
(8.980086e+00 -6.571568e-02 -2.214724e-03)
(8.979310e+00 -6.560906e-02 -2.775235e-03)
(8.978505e+00 -6.552613e-02 -3.327488e-03)
(8.977141e+00 -6.551159e-02 -3.828609e-03)
(8.970037e+00 -6.573237e-02 -4.113117e-03)
(8.956779e+00 -6.607512e-02 -3.539223e-03)
(8.985696e+00 -6.566794e-02 -1.892861e-03)
(8.988083e+00 -6.548434e-02 -5.250067e-04)
(8.995466e+00 -6.517875e-02 2.047976e-05)
(8.970973e+00 -6.604700e-02 -2.035027e-03)
(8.925312e+00 -6.658779e-02 -3.957042e-03)
(6.630888e+00 -5.325954e-02 -7.005863e-02)
(8.853412e+00 -6.377001e-02 -1.626371e-02)
(8.918433e+00 -6.783460e-02 -3.139243e-03)
(8.985422e+00 -6.588350e-02 -1.988278e-03)
(9.009523e+00 -6.525975e-02 -2.244225e-03)
(9.011797e+00 -6.508170e-02 -2.851330e-03)
(9.011681e+00 -6.497957e-02 -3.490882e-03)
(9.013075e+00 -6.486540e-02 -4.090131e-03)
(9.014671e+00 -6.478802e-02 -4.697857e-03)
(9.015707e+00 -6.470314e-02 -5.334612e-03)
(9.015141e+00 -6.463473e-02 -5.882604e-03)
(9.008181e+00 -6.476458e-02 -6.164213e-03)
(8.994379e+00 -6.528901e-02 -5.471691e-03)
(9.020054e+00 -6.470104e-02 -3.548288e-03)
(9.031073e+00 -6.458073e-02 -2.086868e-03)
(9.041194e+00 -6.452130e-02 -2.094720e-03)
(9.019249e+00 -6.511656e-02 -4.308840e-03)
(8.951631e+00 -6.565493e-02 -8.360906e-03)
(6.570968e+00 -4.458515e-02 -7.682676e-02)
(8.906212e+00 -6.321427e-02 -1.672190e-02)
(8.951215e+00 -6.738433e-02 -3.107692e-03)
(9.011993e+00 -6.520853e-02 -1.798411e-03)
(9.034370e+00 -6.460113e-02 -2.011396e-03)
(9.036137e+00 -6.438733e-02 -2.586596e-03)
(9.035621e+00 -6.423677e-02 -3.199025e-03)
(9.037213e+00 -6.413677e-02 -3.817247e-03)
(9.038167e+00 -6.407621e-02 -4.410139e-03)
(9.037945e+00 -6.404441e-02 -4.983561e-03)
(9.037174e+00 -6.399679e-02 -5.544528e-03)
(9.030009e+00 -6.415698e-02 -5.810919e-03)
(9.015205e+00 -6.472758e-02 -5.113184e-03)
(9.043453e+00 -6.406062e-02 -3.310701e-03)
(9.054499e+00 -6.402280e-02 -1.841571e-03)
(9.066591e+00 -6.386618e-02 -1.872651e-03)
(9.048542e+00 -6.444520e-02 -4.190983e-03)
(8.987541e+00 -6.473047e-02 -8.244787e-03)
(6.594292e+00 -4.397409e-02 -7.610690e-02)
(8.930976e+00 -6.296773e-02 -1.696438e-02)
(8.955409e+00 -6.716858e-02 -1.835196e-03)
(9.015499e+00 -6.508408e-02 -1.119248e-03)
(9.035954e+00 -6.447856e-02 -1.290384e-03)
(9.038959e+00 -6.431529e-02 -1.854634e-03)
(9.039320e+00 -6.417174e-02 -2.473029e-03)
(9.038248e+00 -6.404419e-02 -3.065456e-03)
(9.039502e+00 -6.396208e-02 -3.635773e-03)
(9.039819e+00 -6.391297e-02 -4.181245e-03)
(9.038738e+00 -6.395756e-02 -4.651877e-03)
(9.031134e+00 -6.422361e-02 -4.882626e-03)
(9.016759e+00 -6.463778e-02 -4.316253e-03)
(9.044969e+00 -6.406338e-02 -2.549664e-03)
(9.054752e+00 -6.393797e-02 -1.090346e-03)
(9.068042e+00 -6.372093e-02 -1.069772e-03)
(9.052543e+00 -6.427560e-02 -3.266476e-03)
(8.994601e+00 -6.491191e-02 -7.089662e-03)
(6.627854e+00 -4.629738e-02 -7.330310e-02)
(8.937426e+00 -6.297457e-02 -1.687132e-02)
(8.945481e+00 -6.683864e-02 -4.049197e-04)
(9.010622e+00 -6.525665e-02 -3.395341e-04)
(9.029225e+00 -6.459633e-02 -4.281724e-04)
(9.032226e+00 -6.453022e-02 -1.020159e-03)
(9.033784e+00 -6.447284e-02 -1.589663e-03)
(9.034164e+00 -6.434946e-02 -2.142224e-03)
(9.033253e+00 -6.423229e-02 -2.709722e-03)
(9.033935e+00 -6.415356e-02 -3.269169e-03)
(9.033859e+00 -6.418035e-02 -3.759612e-03)
(9.026425e+00 -6.444628e-02 -3.993950e-03)
(9.010900e+00 -6.485060e-02 -3.418127e-03)
(9.041722e+00 -6.431717e-02 -1.652888e-03)
(9.047889e+00 -6.390975e-02 -1.573961e-04)
(9.062057e+00 -6.365781e-02 -1.348314e-04)
(9.053835e+00 -6.435412e-02 -2.284295e-03)
(8.995648e+00 -6.518506e-02 -5.833332e-03)
(6.682629e+00 -5.127164e-02 -6.853237e-02)
(8.868312e+00 -6.454175e-02 -1.553137e-02)
(8.897523e+00 -6.681558e-02 9.474058e-04)
(8.978067e+00 -6.655284e-02 1.060712e-03)
(8.999245e+00 -6.573165e-02 6.727020e-04)
(9.001438e+00 -6.559563e-02 2.085881e-04)
(9.002511e+00 -6.551811e-02 -2.867513e-04)
(9.003725e+00 -6.544465e-02 -7.890846e-04)
(9.006886e+00 -6.529741e-02 -1.304855e-03)
(9.011262e+00 -6.516333e-02 -1.901706e-03)
(9.014463e+00 -6.515713e-02 -2.479236e-03)
(9.007357e+00 -6.537555e-02 -2.774798e-03)
(8.993615e+00 -6.572250e-02 -2.208383e-03)
(9.020397e+00 -6.506348e-02 -5.575555e-04)
(9.028854e+00 -6.470957e-02 6.985706e-04)
(9.041841e+00 -6.445177e-02 6.816701e-04)
(9.035916e+00 -6.500314e-02 -1.184977e-03)
(8.983059e+00 -6.590494e-02 -4.336489e-03)
(6.714480e+00 -6.921402e-02 -5.450160e-02)
(8.768566e+00 -7.025637e-02 -1.022789e-02)
(8.748923e+00 -6.778075e-02 4.738949e-03)
(8.864765e+00 -6.797923e-02 4.082697e-03)
(8.895181e+00 -6.798678e-02 4.065374e-03)
(8.898645e+00 -6.785694e-02 3.646850e-03)
(8.900241e+00 -6.771423e-02 2.987760e-03)
(8.904995e+00 -6.751184e-02 2.277750e-03)
(8.917961e+00 -6.732657e-02 1.247926e-03)
(8.937406e+00 -6.669601e-02 -2.879573e-04)
(8.955748e+00 -6.600894e-02 -2.021406e-03)
(8.958062e+00 -6.571738e-02 -2.940486e-03)
(8.942668e+00 -6.630142e-02 -2.255847e-03)
(8.963275e+00 -6.599560e-02 3.460337e-04)
(8.963564e+00 -6.614009e-02 2.333391e-03)
(8.989870e+00 -6.558702e-02 2.405987e-03)
(8.980930e+00 -6.642927e-02 -8.905354e-04)
(8.925391e+00 -6.713450e-02 -4.927747e-03)
(6.571873e+00 -1.097322e-01 -3.161517e-02)
(8.573862e+00 -6.190985e-02 -2.593913e-03)
(8.686892e+00 -7.004540e-02 9.436048e-04)
(8.801064e+00 -6.747139e-02 -3.595060e-03)
(8.867478e+00 -6.661702e-02 -5.320523e-03)
(8.877908e+00 -6.636518e-02 -6.183922e-03)
(8.885606e+00 -6.596995e-02 -7.225405e-03)
(8.904869e+00 -6.561499e-02 -8.624159e-03)
(8.940510e+00 -6.435639e-02 -1.078061e-02)
(8.941448e+00 -6.251027e-02 -1.424638e-02)
(8.932676e+00 -6.095805e-02 -1.413299e-02)
(8.916644e+00 -6.018886e-02 -1.412176e-02)
(8.924964e+00 -6.016331e-02 -1.392564e-02)
(8.951108e+00 -5.987864e-02 -1.472196e-02)
(8.974246e+00 -5.914614e-02 -1.432070e-02)
(8.987429e+00 -5.852731e-02 -1.504601e-02)
(8.955265e+00 -5.851372e-02 -1.427711e-02)
(8.842431e+00 -5.989833e-02 -1.564410e-02)
(5.829151e+00 -3.892296e-02 -1.401415e-01)
(6.861096e+00 -1.066838e-01 -3.791264e-03)
(7.536410e+00 -6.414004e-02 -2.714030e-02)
(7.639425e+00 -5.771861e-02 -3.698169e-02)
(7.549162e+00 -5.550282e-02 -3.567410e-02)
(7.494203e+00 -5.449847e-02 -3.409836e-02)
(7.445274e+00 -5.411108e-02 -3.480234e-02)
(7.379097e+00 -5.280936e-02 -3.616292e-02)
(7.286576e+00 -5.369172e-02 -4.075887e-02)
(7.110252e+00 -5.440101e-02 -4.744231e-02)
(6.992665e+00 -5.248619e-02 -5.566881e-02)
(6.933691e+00 -4.913087e-02 -5.991441e-02)
(6.933156e+00 -4.761583e-02 -6.104264e-02)
(6.937115e+00 -4.907337e-02 -5.963568e-02)
(6.956952e+00 -4.990536e-02 -5.755670e-02)
(6.921586e+00 -5.036952e-02 -5.765685e-02)
(6.917789e+00 -4.764703e-02 -5.958918e-02)
(6.857476e+00 -4.987390e-02 -6.067444e-02)
(1.998612e+00 1.463184e-01 -1.814066e-01)
(1.595907e+00 9.705347e-02 1.545978e-04)
(1.931719e+00 9.693981e-02 2.846283e-02)
(1.653474e+00 1.089650e-01 3.181786e-02)
(1.642846e+00 1.088262e-01 2.970101e-02)
(1.645103e+00 1.083403e-01 2.960752e-02)
(1.646516e+00 1.079170e-01 2.961779e-02)
(1.646810e+00 1.074973e-01 2.967810e-02)
(1.646867e+00 1.071082e-01 2.974910e-02)
(1.646404e+00 1.067629e-01 2.981123e-02)
(1.646348e+00 1.064322e-01 2.985737e-02)
(1.646449e+00 1.061073e-01 2.987329e-02)
(1.646757e+00 1.057781e-01 2.987619e-02)
(1.647076e+00 1.054577e-01 2.985783e-02)
(1.647145e+00 1.051389e-01 2.984215e-02)
(1.646935e+00 1.048266e-01 2.983353e-02)
(1.646042e+00 1.045329e-01 2.989105e-02)
(1.644761e+00 1.042448e-01 2.994653e-02)
(1.643273e+00 1.039664e-01 3.000163e-02)
(1.641854e+00 1.036690e-01 3.005708e-02)
(1.640184e+00 1.033912e-01 3.015749e-02)
(1.637611e+00 1.031873e-01 3.023455e-02)
(1.633051e+00 1.030760e-01 3.037135e-02)
(1.627266e+00 1.030599e-01 3.047535e-02)
(1.621474e+00 1.030686e-01 3.056184e-02)
(1.615360e+00 1.030703e-01 3.067842e-02)
(1.607827e+00 1.030661e-01 3.087922e-02)
(1.600387e+00 1.030822e-01 3.115195e-02)
(1.592529e+00 1.031411e-01 3.156294e-02)
(1.584846e+00 1.031941e-01 3.194363e-02)
(1.577091e+00 1.032814e-01 3.230894e-02)
(1.569380e+00 1.033856e-01 3.262807e-02)
(1.561577e+00 1.034716e-01 3.293761e-02)
(1.553620e+00 1.035513e-01 3.324944e-02)
(1.545264e+00 1.036552e-01 3.356675e-02)
(1.536035e+00 1.038090e-01 3.388941e-02)
(1.526719e+00 1.039781e-01 3.421404e-02)
(1.517293e+00 1.041555e-01 3.455086e-02)
(1.507940e+00 1.043449e-01 3.494535e-02)
(1.499173e+00 1.045108e-01 3.532865e-02)
(1.490609e+00 1.046639e-01 3.575649e-02)
(1.482530e+00 1.047821e-01 3.619501e-02)
(1.474648e+00 1.049039e-01 3.657542e-02)
(1.466775e+00 1.050501e-01 3.697042e-02)
(1.459184e+00 1.051820e-01 3.733258e-02)
(1.450467e+00 1.053404e-01 3.772409e-02)
(1.441498e+00 1.054976e-01 3.812492e-02)
(1.433164e+00 1.057071e-01 3.861442e-02)
(1.422842e+00 1.060642e-01 3.909238e-02)
(1.412124e+00 1.064647e-01 3.956729e-02)
(1.401535e+00 1.068669e-01 3.991384e-02)
(1.390780e+00 1.073267e-01 4.023032e-02)
(1.379273e+00 1.078214e-01 4.054294e-02)
(1.366906e+00 1.083978e-01 4.098028e-02)
(1.354822e+00 1.090144e-01 4.141816e-02)
(1.342579e+00 1.096348e-01 4.185810e-02)
(1.330201e+00 1.102800e-01 4.214443e-02)
(1.317611e+00 1.109020e-01 4.245849e-02)
(1.303953e+00 1.114439e-01 4.275444e-02)
(1.290359e+00 1.118551e-01 4.322333e-02)
(1.277011e+00 1.122616e-01 4.364401e-02)
(1.263479e+00 1.126807e-01 4.409326e-02)
(1.249254e+00 1.131667e-01 4.453146e-02)
(1.234405e+00 1.136585e-01 4.499515e-02)
(1.218813e+00 1.141404e-01 4.543046e-02)
(1.202666e+00 1.146659e-01 4.588428e-02)
(1.186170e+00 1.151846e-01 4.627939e-02)
(1.169229e+00 1.157286e-01 4.654108e-02)
(1.150697e+00 1.163498e-01 4.667787e-02)
(1.131469e+00 1.170848e-01 4.689008e-02)
(1.111084e+00 1.178457e-01 4.708563e-02)
(1.089943e+00 1.187211e-01 4.717843e-02)
(1.067654e+00 1.196671e-01 4.722492e-02)
(1.046096e+00 1.205852e-01 4.741239e-02)
(1.024720e+00 1.214245e-01 4.762436e-02)
(1.003121e+00 1.222643e-01 4.781151e-02)
(9.809371e-01 1.230561e-01 4.798678e-02)
(9.575784e-01 1.238778e-01 4.821550e-02)
(9.312082e-01 1.246361e-01 4.823253e-02)
(9.038800e-01 1.253447e-01 4.808701e-02)
(8.754724e-01 1.259662e-01 4.802056e-02)
(8.473760e-01 1.265153e-01 4.797718e-02)
(8.182102e-01 1.271082e-01 4.781340e-02)
(7.892925e-01 1.276656e-01 4.756021e-02)
(7.613803e-01 1.281735e-01 4.729324e-02)
(7.352645e-01 1.285206e-01 4.707926e-02)
(7.091330e-01 1.286920e-01 4.684239e-02)
(6.843558e-01 1.288548e-01 4.647735e-02)
(6.597012e-01 1.289958e-01 4.603129e-02)
(6.358538e-01 1.290383e-01 4.552067e-02)
(6.109968e-01 1.288521e-01 4.447391e-02)
(5.857698e-01 1.286515e-01 4.347781e-02)
(5.601295e-01 1.284759e-01 4.250295e-02)
(5.351924e-01 1.282897e-01 4.160639e-02)
(5.104502e-01 1.282182e-01 4.066528e-02)
(4.837357e-01 1.281111e-01 3.953297e-02)
(4.571652e-01 1.278975e-01 3.836632e-02)
(4.328052e-01 1.275393e-01 3.718225e-02)
(4.111017e-01 1.271616e-01 3.621741e-02)
(3.898388e-01 1.266192e-01 3.520202e-02)
(3.675464e-01 1.258531e-01 3.403531e-02)
(3.469219e-01 1.250342e-01 3.286986e-02)
(3.266242e-01 1.241697e-01 3.172537e-02)
(3.075057e-01 1.232098e-01 3.038531e-02)
(2.912999e-01 1.221481e-01 2.903215e-02)
(2.798129e-01 1.209787e-01 2.750105e-02)
(2.705096e-01 1.196315e-01 2.589080e-02)
(2.632127e-01 1.182535e-01 2.411343e-02)
(2.587512e-01 1.167326e-01 2.194972e-02)
(2.558025e-01 1.151209e-01 1.958169e-02)
(2.532545e-01 1.133438e-01 1.682930e-02)
(2.555156e-01 1.114391e-01 1.407249e-02)
(2.584264e-01 1.094685e-01 1.118806e-02)
(2.643637e-01 1.075962e-01 8.457000e-03)
(2.703574e-01 1.056282e-01 5.658288e-03)
(2.760662e-01 1.037553e-01 2.467892e-03)
(2.825355e-01 1.018797e-01 -8.535843e-04)
(2.895659e-01 1.000033e-01 -4.110479e-03)
(2.952781e-01 9.836352e-02 -7.337146e-03)
(2.964169e-01 9.714891e-02 -1.013301e-02)
(2.953787e-01 9.613776e-02 -1.339001e-02)
(2.964271e-01 9.489513e-02 -1.621004e-02)
(3.019764e-01 9.344830e-02 -1.854106e-02)
(3.087019e-01 9.177735e-02 -2.058047e-02)
(3.167773e-01 8.990183e-02 -2.238966e-02)
(3.285761e-01 8.779132e-02 -2.431572e-02)
(3.457320e-01 8.543747e-02 -2.623923e-02)
(3.639928e-01 8.281358e-02 -2.791382e-02)
(3.812440e-01 7.991416e-02 -2.982706e-02)
(3.989728e-01 7.696324e-02 -3.220744e-02)
(4.173123e-01 7.375081e-02 -3.399109e-02)
(4.393066e-01 7.015505e-02 -3.633370e-02)
(4.591691e-01 6.674256e-02 -3.964835e-02)
(4.754235e-01 6.327623e-02 -4.290484e-02)
(4.878218e-01 5.936943e-02 -4.631110e-02)
(4.977834e-01 5.523883e-02 -4.884979e-02)
(5.103802e-01 5.117571e-02 -5.094393e-02)
(5.285723e-01 4.673646e-02 -5.283646e-02)
(5.493480e-01 4.245695e-02 -5.479420e-02)
(5.782959e-01 3.828000e-02 -5.804240e-02)
(6.147309e-01 3.457653e-02 -6.172761e-02)
(6.568570e-01 3.170365e-02 -6.658901e-02)
(6.985825e-01 2.889041e-02 -7.083669e-02)
(7.415529e-01 2.608954e-02 -7.409846e-02)
(7.888335e-01 2.274141e-02 -7.590622e-02)
(8.428021e-01 1.941162e-02 -7.770330e-02)