/*--------------------------------*- C++ -*----------------------------------*\
| =========                 |                                                 |
| \\      /  F ield         | OpenFOAM: The Open Source CFD Toolbox           |
|  \\    /   O peration     | Version:  v2406                                 |
|   \\  /    A nd           | Website:  www.openfoam.com                      |
|    \\/     M anipulation  |                                                 |
\*---------------------------------------------------------------------------*/
FoamFile
{
    version     2.0;
    format      ascii;
    class       volScalarField;
    location    "predicted";
    object      epsilon;
}
// * * * * * * * * * * * * * * * * * * * * * * * * * * * * * * * * * * * * * //

dimensions      [0 2 -3 0 0 0 0];

internalField   nonuniform List<scalar>
49181
(
2.919831e+03
1.916367e+03
1.645865e+03
1.989594e+03
2.108677e+03
2.151443e+03
2.183245e+03
2.204855e+03
2.205172e+03
2.177943e+03
2.158647e+03
2.155354e+03
2.151936e+03
2.134970e+03
2.104429e+03
2.077873e+03
2.195268e+03
2.173019e+03
1.890705e+03
6.346039e+02
5.808616e+02
7.693665e+02
8.558316e+02
9.162236e+02
9.721169e+02
1.036893e+03
1.103870e+03
1.165098e+03
1.206585e+03
1.233004e+03
1.207342e+03
1.129734e+03
1.026881e+03
9.549748e+02
9.912019e+02
1.217523e+03
1.549221e+03
4.718492e+02
2.711481e+02
2.984618e+02
3.499828e+02
3.910751e+02
4.376032e+02
4.896839e+02
5.555935e+02
6.239208e+02
6.811126e+02
7.058690e+02
6.799668e+02
5.776714e+02
4.554724e+02
3.833507e+02
3.941737e+02
5.214331e+02
1.828472e+03
5.105909e+02
1.861099e+02
2.037260e+02
2.412763e+02
2.710346e+02
3.012652e+02
3.315569e+02
3.654270e+02
4.061554e+02
4.371529e+02
4.558923e+02
4.363223e+02
3.636418e+02
2.817082e+02
2.332961e+02
2.387245e+02
3.119159e+02
1.882005e+03
4.473446e+02
1.348310e+02
1.371917e+02
1.589905e+02
1.765065e+02
1.941480e+02
2.101560e+02
2.261107e+02
2.428986e+02
2.626121e+02
2.704910e+02
2.616303e+02
2.208500e+02
1.749315e+02
1.465438e+02
1.488390e+02
1.901963e+02
1.854974e+03
3.686901e+02
9.018613e+01
8.141107e+01
9.278844e+01
1.035508e+02
1.138148e+02
1.223651e+02
1.300494e+02
1.373796e+02
1.442853e+02
1.495714e+02
1.475025e+02
1.281492e+02
1.005993e+02
8.164186e+01
8.323766e+01
1.081398e+02
1.812334e+03
2.920168e+02
6.008088e+01
4.629360e+01
4.858187e+01
5.205654e+01
5.526719e+01
5.854202e+01
6.256119e+01
6.734151e+01
7.183388e+01
7.593103e+01
7.599012e+01
6.189628e+01
4.893909e+01
4.000259e+01
4.071474e+01
4.925208e+01
1.759343e+03
2.261767e+02
3.675332e+01
2.054406e+01
1.925327e+01
2.042759e+01
2.226625e+01
2.368459e+01
2.524574e+01
2.710285e+01
2.902924e+01
3.156553e+01
3.340218e+01
2.580728e+01
1.824920e+01
1.233150e+01
1.316953e+01
1.749128e+01
1.697536e+03
1.697359e+02
1.901160e+01
2.008664e+00
-1.051926e+00
-7.696601e-01
1.983300e-01
1.252708e+00
2.262629e+00
3.286508e+00
4.207697e+00
5.885643e+00
8.021808e+00
3.079404e+00
-2.079310e+00
-6.187091e+00
-4.927599e+00
-2.781426e+00
1.625350e+03
1.269801e+02
4.456673e+00
-1.119201e+01
-1.508374e+01
-1.477671e+01
-1.393757e+01
-1.304816e+01
-1.227130e+01
-1.139454e+01
-1.054489e+01
-8.956328e+00
-6.826369e+00
-1.134575e+01
-1.521373e+01
-1.895363e+01
-1.721480e+01
-1.513957e+01
1.551948e+03
1.034166e+02
-4.805041e+00
-1.854144e+01
-2.198060e+01
-2.214536e+01
-2.180117e+01
-2.139264e+01
-2.086175e+01
-2.033024e+01
-1.958319e+01
-1.819063e+01
-1.624479e+01
-2.029268e+01
-2.239320e+01
-2.490910e+01
-2.349207e+01
-2.280242e+01
1.484167e+03
8.581776e+01
-1.036445e+01
-2.248203e+01
-2.547461e+01
-2.584392e+01
-2.589610e+01
-2.550211e+01
-2.477110e+01
-2.398049e+01
-2.335540e+01
-2.245180e+01
-2.087309e+01
-2.458155e+01
-2.634071e+01
-2.820818e+01
-2.682278e+01
-2.726793e+01
1.422785e+03
7.427165e+01
-1.392320e+01
-2.519371e+01
-2.794151e+01
-2.820254e+01
-2.813946e+01
-2.815434e+01
-2.771869e+01
-2.696526e+01
-2.610002e+01
-2.515736e+01
-2.396513e+01
-2.758821e+01
-2.862337e+01
-3.067953e+01
-2.927673e+01
-2.991811e+01
1.362315e+03
6.725803e+01
-1.655200e+01
-2.739649e+01
-2.965265e+01
-3.001344e+01
-3.003010e+01
-2.991633e+01
-2.982071e+01
-2.942111e+01
-2.885322e+01
-2.796485e+01
-2.679510e+01
-2.954548e+01
-3.044870e+01
-3.250486e+01
-3.118678e+01
-3.176667e+01
1.304320e+03
6.155639e+01
-1.868048e+01
-2.885055e+01
-3.068627e+01
-3.131477e+01
-3.151689e+01
-3.144030e+01
-3.140648e+01
-3.115631e+01
-3.080940e+01
-3.009282e+01
-2.875392e+01
-3.118806e+01
-3.196620e+01
-3.352993e+01
-3.235148e+01
-3.352343e+01
1.249501e+03
5.837424e+01
-2.057191e+01
-3.039418e+01
-3.161186e+01
-3.206556e+01
-3.244574e+01
-3.264687e+01
-3.273543e+01
-3.253159e+01
-3.213443e+01
-3.151517e+01
-3.015563e+01
-3.267972e+01
-3.285935e+01
-3.397648e+01
-3.284584e+01
-3.469169e+01
1.199436e+03
5.781256e+01
-2.159535e+01
-3.009035e+01
-3.130622e+01
-3.156393e+01
-3.184622e+01
-3.227608e+01
-3.281519e+01
-3.309556e+01
-3.325714e+01
-3.287625e+01
-3.159980e+01
-3.252981e+01
-3.227887e+01
-3.385054e+01
-3.260111e+01
-3.388210e+01
1.157665e+03
5.713699e+01
-2.072613e+01
-2.869966e+01
-3.068853e+01
-3.106155e+01
-3.123248e+01
-3.122767e+01
-3.130123e+01
-3.142640e+01
-3.174748e+01
-3.174267e+01
-3.026289e+01
-3.120882e+01
-3.169513e+01
-3.303670e+01
-3.179259e+01
-3.328327e+01
1.134660e+03
5.750628e+01
-1.985471e+01
-2.750452e+01
-2.999711e+01
-3.050551e+01
-3.070614e+01
-3.082000e+01
-3.072702e+01
-3.055297e+01
-3.044086e+01
-3.029271e+01
-2.872413e+01
-3.057185e+01
-3.031777e+01
-3.086184e+01
-2.967885e+01
-3.218966e+01
1.202755e+03
6.049466e+01
-2.175434e+01
-2.911595e+01
-3.143742e+01
-3.211899e+01
-3.235623e+01
-3.245973e+01
-3.266811e+01
-3.268411e+01
-3.258706e+01
-3.208225e+01
-3.046037e+01
-3.190612e+01
-3.123949e+01
-3.169655e+01
-3.130307e+01
-3.454356e+01
1.351879e+03
6.308392e+01
-2.352708e+01
-3.389980e+01
-3.557594e+01
-3.603579e+01
-3.608615e+01
-3.603460e+01
-3.592101e+01
-3.575789e+01
-3.565027e+01
-3.514813e+01
-3.323668e+01
-3.512859e+01
-3.557410e+01
-3.686305e+01
-3.712179e+01
-3.508045e+01
1.603449e+03
1.089780e+02
-9.797513e+00
-2.450909e+01
-2.653190e+01
-2.681351e+01
-2.720153e+01
-2.725786e+01
-2.702706e+01
-2.673544e+01
-2.620375e+01
-2.526979e+01
-2.416921e+01
-2.865981e+01
-2.814000e+01
-2.885061e+01
-2.374660e+01
-1.692758e+01
1.720175e+03
1.599833e+02
-8.844342e+00
-2.502501e+01
-2.799235e+01
-2.812099e+01
-2.810885e+01
-2.802789e+01
-2.790356e+01
-2.761384e+01
-2.704351e+01
-2.603306e+01
-2.518771e+01
-2.994380e+01
-3.120228e+01
-3.108617e+01
-2.548135e+01
-1.275241e+01
1.815908e+03
1.689077e+02
-1.220894e+01
-2.783507e+01
-3.069405e+01
-3.108632e+01
-3.112035e+01
-3.114666e+01
-3.102054e+01
-3.072622e+01
-3.012145e+01
-2.916358e+01
-2.821798e+01
-3.299417e+01
-3.379839e+01
-3.399566e+01
-2.927254e+01
-1.757930e+01
1.836900e+03
1.533366e+02
-1.484068e+01
-2.933579e+01
-3.173632e+01
-3.211370e+01
-3.235724e+01
-3.239674e+01
-3.235870e+01
-3.197341e+01
-3.157043e+01
-3.071116e+01
-2.961913e+01
-3.436847e+01
-3.480840e+01
-3.518780e+01
-3.123254e+01
-2.102704e+01
1.828985e+03
1.375144e+02
-1.627826e+01
-3.033398e+01
-3.225431e+01
-3.245049e+01
-3.280643e+01
-3.294604e+01
-3.292501e+01
-3.271036e+01
-3.229316e+01
-3.147864e+01
-3.040995e+01
-3.494803e+01
-3.486028e+01
-3.580873e+01
-3.220626e+01
-2.352007e+01
1.764730e+03
1.276019e+02
-1.310812e+01
-2.921246e+01
-3.165661e+01
-3.149453e+01
-3.176949e+01
-3.173056e+01
-3.159071e+01
-3.129998e+01
-3.089246e+01
-2.998273e+01
-2.912126e+01
-3.406895e+01
-3.506777e+01
-3.602091e+01
-3.220321e+01
-2.295100e+01
1.497110e+03
1.150136e+02
6.471735e+00
-1.671866e+01
-2.170377e+01
-2.154608e+01
-2.104088e+01
-2.050946e+01
-1.974543e+01
-1.796393e+01
-1.594711e+01
-1.387800e+01
-1.374951e+01
-2.187197e+01
-2.530858e+01
-2.852121e+01
-2.112044e+01
-8.689415e+00
1.786835e+03
2.253012e+02
6.385200e+01
6.507013e+01
6.634039e+01
7.080271e+01
7.504896e+01
7.946706e+01
8.555652e+01
1.081936e+02
1.372382e+02
1.649020e+02
1.571455e+02
1.293808e+02
1.074198e+02
1.054737e+02
1.249567e+02
1.843533e+02
3.032578e+03
1.705522e+03
1.064988e+03
1.277771e+03
1.402562e+03
1.464305e+03
1.518719e+03
1.586431e+03
1.675626e+03
1.756607e+03
1.838123e+03
1.883684e+03
1.891366e+03
1.862002e+03
1.826822e+03
1.811799e+03
1.834838e+03
1.875017e+03
8.180794e+02
5.788818e+01
-9.060087e+00
-1.782964e+01
-1.628203e+01
-1.491109e+01
-1.384739e+01
-1.284058e+01
-1.181005e+01
-1.079891e+01
-9.864449e+00
-8.964464e+00
-8.113419e+00
-7.369490e+00
-6.759730e+00
-6.164670e+00
-5.583715e+00
-5.147710e+00
-4.729344e+00
-4.477042e+00
-4.247903e+00
-4.065210e+00
-3.893563e+00
-3.709474e+00
-3.546084e+00
-3.398046e+00
-3.227112e+00
-3.004329e+00
-2.596208e+00
-2.000257e+00
-1.170831e+00
-3.538187e-01
4.157091e-01
1.231979e+00
2.095289e+00
3.043115e+00
3.934874e+00
4.812260e+00
5.700188e+00
6.902128e+00
8.456002e+00
1.049524e+01
1.264385e+01
1.479524e+01
1.692393e+01
1.909727e+01
2.148568e+01
2.430139e+01
2.730683e+01
3.013282e+01
3.344791e+01
3.677292e+01
4.039954e+01
4.404649e+01
4.761087e+01
5.107691e+01
5.493746e+01
5.879092e+01
6.199140e+01
6.522974e+01
6.877909e+01
7.265934e+01
7.686501e+01
8.139509e+01
8.621761e+01
9.076670e+01
9.499725e+01
9.939444e+01
1.035356e+02
1.079815e+02
1.128405e+02
1.177629e+02
1.226298e+02
1.273756e+02
1.324397e+02
1.375240e+02
1.430452e+02
1.502053e+02
1.581314e+02
1.662092e+02
1.747483e+02
1.836311e+02
1.931678e+02
2.021985e+02
2.113870e+02
2.211748e+02
2.314579e+02
2.421566e+02
2.525773e+02
2.633962e+02
2.758150e+02
2.890318e+02
3.027098e+02
3.158438e+02
3.284336e+02
3.404769e+02
3.520875e+02
3.635218e+02
3.756069e+02
3.871779e+02
3.988719e+02
4.107589e+02
4.232413e+02
4.349018e+02
4.465517e+02
4.590315e+02
4.716034e+02
4.834503e+02
4.956455e+02
5.073050e+02
5.176755e+02
5.260810e+02
5.335242e+02
5.404080e+02
5.454233e+02
5.490330e+02
5.520622e+02
5.552955e+02
5.601775e+02
5.644472e+02
5.686289e+02
5.701492e+02
5.710712e+02
5.705992e+02
5.697050e+02
5.679968e+02
5.655855e+02
5.647418e+02
5.634700e+02
5.607193e+02
5.561953e+02
5.503151e+02
5.432784e+02
5.363371e+02
5.304610e+02
5.239128e+02
5.181407e+02
5.147640e+02
5.114115e+02
5.077309e+02
5.040734e+02
4.997610e+02
4.940500e+02
4.876474e+02
4.809660e+02
4.738981e+02
4.671844e+02
4.602821e+02
4.535994e+02
4.460963e+02
4.385086e+02
4.307822e+02
4.228733e+02
4.159305e+02
4.096149e+02
4.039110e+02
3.982771e+02
3.927152e+02
3.872309e+02
3.817508e+02
3.758788e+02
3.704720e+02
3.651994e+02
3.600990e+02
3.554601e+02
3.510865e+02
3.470250e+02
3.423188e+02
3.372374e+02
3.318660e+02
3.268099e+02
3.223295e+02
3.197929e+02
3.235915e+02
3.532743e+02
4.472461e+02
5.161301e+02
5.583080e+02
5.312677e+02
4.940733e+02
7.486826e+01
-6.103857e+01
-6.819295e+01
-6.830993e+01
-6.809997e+01
-6.679011e+01
-6.528316e+01
-6.380014e+01
-6.233325e+01
-6.092263e+01
-5.948380e+01
-5.803422e+01
-5.663391e+01
-5.523728e+01
-5.385615e+01
-5.247573e+01
-5.113205e+01
-4.976580e+01
-4.841749e+01
-4.707279e+01
-4.596894e+01
-4.496098e+01
-4.391067e+01
-4.307801e+01
-4.236868e+01
-4.180129e+01
-4.151187e+01
-4.120071e+01
-4.090273e+01
-4.055528e+01
-4.025149e+01
-4.004596e+01
-3.976215e+01
-3.960369e+01
-3.936971e+01
-3.903277e+01
-3.866967e+01
-3.815939e+01
-3.750111e+01
-3.663857e+01
-3.572843e+01
-3.465065e+01
-3.353866e+01
-3.238332e+01
-3.114185e+01
-2.983811e+01
-2.871386e+01
-2.775201e+01
-2.670280e+01
-2.513049e+01
-2.318420e+01
-2.111875e+01
-1.911972e+01
-1.694735e+01
-1.459336e+01
-1.213033e+01
-9.452973e+00
-6.756345e+00
-4.173780e+00
-1.467827e+00
1.409595e+00
4.380115e+00
7.434766e+00
1.028724e+01
1.322878e+01
1.584282e+01
1.848579e+01
2.146174e+01
2.456970e+01
2.815013e+01
3.201529e+01
3.598136e+01
4.041080e+01
4.500753e+01
4.966166e+01
5.448210e+01
5.952143e+01
6.431592e+01
6.933283e+01
7.468966e+01
8.060166e+01
8.703405e+01
9.438830e+01
1.019224e+02
1.097327e+02
1.173763e+02
1.251288e+02
1.328930e+02
1.413743e+02
1.503642e+02
1.595417e+02
1.690543e+02
1.780033e+02
1.866724e+02
1.961339e+02
2.056654e+02
2.153395e+02
2.252816e+02
2.347546e+02
2.430101e+02
2.499264e+02
2.567382e+02
2.646619e+02
2.717807e+02
2.779907e+02
2.837996e+02
2.898824e+02
2.963284e+02
3.020792e+02
3.075318e+02
3.126866e+02
3.163256e+02
3.194480e+02
3.221933e+02
3.243295e+02
3.265487e+02
3.291340e+02
3.316701e+02
3.324540e+02
3.331898e+02
3.337673e+02
3.332701e+02
3.327076e+02
3.315234e+02
3.302195e+02
3.288943e+02
3.267718e+02
3.247632e+02
3.227944e+02
3.206655e+02
3.187114e+02
3.163094e+02
3.134094e+02
3.106850e+02
3.083351e+02
3.071853e+02
3.067245e+02
3.061308e+02
3.051323e+02
3.037542e+02
3.009840e+02
2.978957e+02
2.945808e+02
2.915248e+02
2.888573e+02
2.861263e+02
2.831315e+02
2.801614e+02
2.772304e+02
2.742463e+02
2.715609e+02
2.698555e+02
2.681952e+02
2.665711e+02
2.650627e+02
2.632779e+02
2.611456e+02
2.586525e+02
2.561016e+02
2.534539e+02
2.505280e+02
2.482454e+02
2.460193e+02
2.432604e+02
2.402948e+02
2.375746e+02
2.353212e+02
2.331630e+02
2.309830e+02
2.287413e+02
2.263486e+02
2.236555e+02
2.213879e+02
2.194260e+02
2.273251e+02
2.887063e+02
3.011915e+02
2.942752e+02
2.567127e+02
2.985909e+02
7.863971e+00
-5.934729e+01
-5.690932e+01
-5.732486e+01
-5.663836e+01
-5.523012e+01
-5.366808e+01
-5.205579e+01
-5.042806e+01
-4.883585e+01
-4.745766e+01
-4.620690e+01
-4.498572e+01
-4.373870e+01
-4.243288e+01
-4.122197e+01
-4.006158e+01
-3.888473e+01
-3.772054e+01
-3.650491e+01
-3.532643e+01
-3.412980e+01
-3.293814e+01
-3.204169e+01
-3.114550e+01
-3.009935e+01
-2.906312e+01
-2.791371e+01
-2.681164e+01
-2.570901e+01
-2.451699e+01
-2.335413e+01
-2.195064e+01
-2.058112e+01
-1.946865e+01
-1.835417e+01
-1.713908e+01
-1.586423e+01
-1.412416e+01
-1.232573e+01
-1.070852e+01
-8.738562e+00
-6.796910e+00
-4.725662e+00
-2.546674e+00
-6.665266e-02
2.391720e+00
5.063820e+00
7.686860e+00
1.049040e+01
1.312950e+01
1.624420e+01
1.954153e+01
2.247924e+01
2.542799e+01
2.873803e+01
3.224713e+01
3.648347e+01
4.033096e+01
4.374503e+01
4.714979e+01
5.011763e+01
5.288911e+01
5.561300e+01
5.835467e+01
6.121803e+01
6.416329e+01
6.761075e+01
7.130860e+01
7.530434e+01
7.941830e+01
8.373346e+01
8.811802e+01
9.241926e+01
9.669414e+01
1.005327e+02
1.042389e+02
1.078033e+02
1.116175e+02
1.150553e+02
1.182968e+02
1.213920e+02
1.244849e+02
1.274434e+02
1.310001e+02
1.351102e+02
1.394792e+02
1.438658e+02
1.483480e+02
1.526600e+02
1.563697e+02
1.601833e+02
1.642174e+02
1.680683e+02
1.718966e+02
1.759496e+02
1.801789e+02
1.849075e+02
1.907395e+02
1.953400e+02
1.994957e+02
2.036092e+02
2.084243e+02
2.131098e+02
2.181023e+02
2.230396e+02
2.279034e+02
2.325941e+02
2.361165e+02
2.374451e+02
2.381861e+02
2.390990e+02
2.401761e+02
2.413445e+02
2.425435e+02
2.439137e+02
2.454446e+02
2.467326e+02
2.481062e+02
2.495320e+02
2.503654e+02
2.514268e+02
2.522725e+02
2.522685e+02
2.515435e+02
2.502800e+02
2.495263e+02
2.492536e+02
2.497586e+02
2.503995e+02
2.510891e+02
2.518497e+02
2.518051e+02
2.518906e+02
2.513529e+02
2.500588e+02
2.475502e+02
2.445539e+02
2.414909e+02
2.383271e+02
2.354101e+02
2.329442e+02
2.307498e+02
2.284408e+02
2.260835e+02
2.236968e+02
2.207321e+02
2.175286e+02
2.146885e+02
2.119188e+02
2.088454e+02
2.062844e+02
2.040380e+02
2.024596e+02
2.011710e+02
1.997686e+02
1.980180e+02
1.961530e+02
1.943022e+02
1.926533e+02
1.909281e+02
1.895188e+02
1.886942e+02
1.878794e+02
1.871034e+02
1.864792e+02
1.858404e+02
1.850596e+02
1.839410e+02
1.828603e+02
1.817611e+02
1.804911e+02
1.783089e+02
1.740728e+02
1.832901e+02
2.341232e+02
2.391271e+02
2.236575e+02
2.053506e+02
2.136837e+02
1.335134e+01
-5.193674e+01
-5.058941e+01
-5.140250e+01
-5.105442e+01
-4.996863e+01
-4.888194e+01
-4.778545e+01
-4.672947e+01
-4.568822e+01
-4.463613e+01
-4.355143e+01
-4.262775e+01
-4.179253e+01
-4.084379e+01
-3.981302e+01
-3.874700e+01
-3.767754e+01
-3.650746e+01
-3.521198e+01
-3.382036e+01
-3.248743e+01
-3.096284e+01
-2.926630e+01
-2.754933e+01
-2.580879e+01
-2.403578e+01
-2.220436e+01
-2.018981e+01
-1.788838e+01
-1.541519e+01
-1.291102e+01
-1.047409e+01
-7.955434e+00
-5.437192e+00
-2.880553e+00
-4.220021e-01
2.155603e+00
4.776713e+00
7.553404e+00
1.018134e+01
1.289787e+01
1.596012e+01
1.954444e+01
2.297654e+01
2.668621e+01
3.090930e+01
3.539292e+01
3.975392e+01
4.455459e+01
4.916127e+01
5.359610e+01
5.818211e+01
6.281855e+01
6.720164e+01
7.161909e+01
7.607764e+01
8.050896e+01
8.480365e+01
8.833690e+01
9.204141e+01
9.567253e+01
9.912675e+01
1.024866e+02
1.062749e+02
1.102461e+02
1.146496e+02
1.196940e+02
1.250469e+02
1.304975e+02
1.354360e+02
1.399113e+02
1.443176e+02
1.487434e+02
1.529172e+02
1.564991e+02
1.598582e+02
1.628043e+02
1.652706e+02
1.678380e+02
1.707518e+02
1.735716e+02
1.775519e+02
1.826949e+02
1.885909e+02
1.947302e+02
2.005616e+02
2.058823e+02
2.115072e+02
2.172101e+02
2.223567e+02
2.266374e+02
2.298670e+02
2.321186e+02
2.342742e+02
2.353932e+02
2.363781e+02
2.370311e+02
2.368167e+02
2.367254e+02
2.372599e+02
2.368921e+02
2.358587e+02
2.352560e+02
2.348729e+02
2.357965e+02
2.367370e+02
2.384400e+02
2.397563e+02
2.415941e+02
2.441841e+02
2.471033e+02
2.493587e+02
2.510021e+02
2.526493e+02
2.550297e+02
2.573286e+02
2.596190e+02
2.604255e+02
2.614096e+02
2.619685e+02
2.617149e+02
2.612227e+02
2.611173e+02
2.612141e+02
2.616909e+02
2.614418e+02
2.615321e+02
2.627031e+02
2.632888e+02
2.631187e+02
2.624732e+02
2.608590e+02
2.576774e+02
2.534493e+02
2.492110e+02
2.442428e+02
2.387088e+02
2.332825e+02
2.279167e+02
2.234057e+02
2.186417e+02
2.136684e+02
2.088172e+02
2.040918e+02
2.002724e+02
1.972808e+02
1.946566e+02
1.920186e+02
1.893319e+02
1.863956e+02
1.837481e+02
1.818820e+02
1.805041e+02
1.789802e+02
1.772367e+02
1.755025e+02
1.735200e+02
1.711314e+02
1.686454e+02
1.662335e+02
1.636710e+02
1.610878e+02
1.590654e+02
1.570660e+02
1.555968e+02
1.543417e+02
1.532348e+02
1.528743e+02
1.529166e+02
1.530932e+02
1.532276e+02
1.528196e+02
1.518819e+02
1.611064e+02
2.093700e+02
2.399595e+02
2.267482e+02
1.962581e+02
2.014165e+02
2.928184e+01
-4.437952e+01
-4.322845e+01
-4.343532e+01
-4.350258e+01
-4.271351e+01
-4.192926e+01
-4.124490e+01
-4.045256e+01
-3.957850e+01
-3.874130e+01
-3.790005e+01
-3.706403e+01
-3.616452e+01
-3.515760e+01
-3.402387e+01
-3.286755e+01
-3.159057e+01
-3.024222e+01
-2.855801e+01
-2.701295e+01
-2.540833e+01
-2.370250e+01
-2.178909e+01
-1.964205e+01
-1.690121e+01
-1.408466e+01
-1.120400e+01
-8.343835e+00
-5.578014e+00
-2.596357e+00
5.046504e-01
3.633899e+00
6.916085e+00
1.011479e+01
1.313797e+01
1.657885e+01
2.000507e+01
2.382010e+01
2.826889e+01
3.257486e+01
3.660190e+01
4.080529e+01
4.533584e+01
5.012580e+01
5.481857e+01
5.960607e+01
6.429361e+01
6.902329e+01
7.372139e+01
7.858066e+01
8.351564e+01
8.865230e+01
9.377638e+01
9.858486e+01
1.036363e+02
1.086884e+02
1.140930e+02
1.194117e+02
1.241794e+02
1.288557e+02
1.337327e+02
1.385732e+02
1.433047e+02
1.479409e+02
1.529640e+02
1.577476e+02
1.624469e+02
1.672984e+02
1.722570e+02
1.774428e+02
1.830979e+02
1.885986e+02
1.936642e+02
1.989683e+02
2.034118e+02
2.076941e+02
2.120096e+02
2.161409e+02
2.203598e+02
2.249570e+02
2.292487e+02
2.336444e+02
2.388086e+02
2.451913e+02
2.525645e+02
2.607202e+02
2.684619e+02
2.762066e+02
2.819827e+02
2.857229e+02
2.890734e+02
2.917085e+02
2.931061e+02
2.942019e+02
2.951816e+02
2.960916e+02
2.970439e+02
2.976811e+02
2.984588e+02
2.987698e+02
2.977938e+02
2.963329e+02
2.941378e+02
2.917456e+02
2.891749e+02
2.869230e+02
2.842850e+02
2.817836e+02
2.817726e+02
2.829873e+02
2.852674e+02
2.870653e+02
2.887023e+02
2.906964e+02
2.929427e+02
2.945974e+02
2.959662e+02
2.967049e+02
2.969276e+02
2.970032e+02
2.974105e+02
2.979270e+02
2.979593e+02
2.978288e+02
2.971546e+02
2.962662e+02
2.947509e+02
2.936645e+02
2.923038e+02
2.905527e+02
2.882402e+02
2.853636e+02
2.822456e+02
2.776256e+02
2.724686e+02
2.662103e+02
2.592149e+02
2.534271e+02
2.478167e+02
2.414189e+02
2.335652e+02
2.256049e+02
2.192124e+02
2.134867e+02
2.082189e+02
2.026622e+02
1.981224e+02
1.935544e+02
1.888463e+02
1.848669e+02
1.815422e+02
1.788589e+02
1.765712e+02
1.743789e+02
1.723542e+02
1.703022e+02
1.684006e+02
1.665513e+02
1.647192e+02
1.629184e+02
1.610443e+02
1.591957e+02
1.572730e+02
1.555531e+02
1.542018e+02
1.530394e+02
1.518766e+02
1.504371e+02
1.490802e+02
1.487326e+02
1.483800e+02
1.470247e+02
1.440624e+02
1.584292e+02
2.087546e+02
2.474338e+02
2.323959e+02
1.935316e+02
1.943653e+02
5.359365e+01
-3.342834e+01
-3.320959e+01
-3.430415e+01
-3.442769e+01
-3.364797e+01
-3.279423e+01
-3.199444e+01
-3.123035e+01
-3.049384e+01
-2.979398e+01
-2.895443e+01
-2.804607e+01
-2.717516e+01
-2.622730e+01
-2.516710e+01
-2.390283e+01
-2.245040e+01
-2.075487e+01
-1.889688e+01
-1.697248e+01
-1.471313e+01
-1.231347e+01
-9.724460e+00
-6.995283e+00
-4.130691e+00
-1.040493e+00
2.094457e+00
5.275942e+00
8.600624e+00
1.219388e+01
1.598682e+01
2.016038e+01
2.449406e+01
2.888871e+01
3.401339e+01
3.889422e+01
4.375707e+01
4.836387e+01
5.310101e+01
5.833513e+01
6.387896e+01
6.926941e+01
7.479794e+01
8.017189e+01
8.518420e+01
8.978506e+01
9.444517e+01
9.904185e+01
1.038100e+02
1.090914e+02
1.144119e+02
1.195931e+02
1.249319e+02
1.304365e+02
1.361086e+02
1.421766e+02
1.486400e+02
1.549952e+02
1.609645e+02
1.661780e+02
1.704090e+02
1.749024e+02
1.793880e+02
1.841784e+02
1.895554e+02
1.950693e+02
2.006510e+02
2.065092e+02
2.124208e+02
2.186861e+02
2.259050e+02
2.329391e+02
2.399013e+02
2.473093e+02
2.542617e+02
2.609276e+02
2.665102e+02
2.711990e+02
2.762986e+02
2.821262e+02
2.883845e+02
2.943994e+02
3.005340e+02
3.070892e+02
3.139285e+02
3.194444e+02
3.250568e+02
3.317384e+02
3.373918e+02
3.417737e+02
3.447622e+02
3.465698e+02
3.475732e+02
3.482824e+02
3.492395e+02
3.505781e+02
3.523212e+02
3.534867e+02
3.549297e+02
3.563902e+02
3.565124e+02
3.551833e+02
3.531835e+02
3.502238e+02
3.473063e+02
3.443420e+02
3.407535e+02
3.372070e+02
3.342449e+02
3.322597e+02
3.313458e+02
3.315554e+02
3.332811e+02
3.347014e+02
3.365841e+02
3.376194e+02
3.380500e+02
3.379192e+02
3.378607e+02
3.381720e+02
3.378983e+02
3.361806e+02
3.353769e+02
3.348628e+02
3.340362e+02
3.321321e+02
3.298501e+02
3.278702e+02
3.263829e+02
3.248427e+02
3.227234e+02
3.196684e+02
3.145016e+02
3.084678e+02
3.020392e+02
2.950962e+02
2.863866e+02
2.773050e+02
2.675612e+02
2.583905e+02
2.499430e+02
2.421435e+02
2.348626e+02
2.280152e+02
2.220118e+02
2.161347e+02
2.111022e+02
2.062060e+02
2.015693e+02
1.977404e+02
1.945967e+02
1.913052e+02
1.878926e+02
1.845840e+02
1.815370e+02
1.785334e+02
1.753797e+02
1.720348e+02
1.687283e+02
1.657662e+02
1.627612e+02
1.599873e+02
1.571722e+02
1.549089e+02
1.527030e+02
1.512045e+02
1.501836e+02
1.490968e+02
1.481974e+02
1.479774e+02
1.477081e+02
1.460416e+02
1.417363e+02
1.573894e+02
2.162845e+02
2.564247e+02
2.396702e+02
1.915709e+02
1.883199e+02
9.121778e+01
-1.952496e+01
-2.134857e+01
-2.427113e+01
-2.465133e+01
-2.408959e+01
-2.331279e+01
-2.241473e+01
-2.150287e+01
-2.064307e+01
-1.965978e+01
-1.863516e+01
-1.756460e+01
-1.637694e+01
-1.497823e+01
-1.356138e+01
-1.193127e+01
-1.006707e+01
-7.674266e+00
-4.940546e+00
-2.090743e+00
9.717778e-01
4.109846e+00
7.331927e+00
1.090790e+01
1.457130e+01
1.828982e+01
2.232594e+01
2.631432e+01
3.028276e+01
3.443425e+01
3.908557e+01
4.400141e+01
4.906925e+01
5.448513e+01
6.019312e+01
6.552154e+01
7.115736e+01
7.691153e+01
8.289911e+01
8.890422e+01
9.466151e+01
1.004336e+02
1.066358e+02
1.126224e+02
1.180583e+02
1.232102e+02
1.283878e+02
1.336864e+02
1.393062e+02
1.453980e+02
1.515079e+02
1.573160e+02
1.634725e+02
1.696725e+02
1.757672e+02
1.819241e+02
1.875917e+02
1.934305e+02
1.989709e+02
2.051123e+02
2.114114e+02
2.166354e+02
2.215990e+02
2.265880e+02
2.317885e+02
2.386256e+02
2.457628e+02
2.532750e+02
2.612671e+02
2.691226e+02
2.768560e+02
2.842683e+02
2.916976e+02
2.987826e+02
3.049977e+02
3.113530e+02
3.176956e+02
3.243409e+02
3.317080e+02
3.383371e+02
3.436152e+02
3.481671e+02
3.530438e+02
3.575816e+02
3.629357e+02
3.706152e+02
3.785545e+02
3.852574e+02
3.910964e+02
3.960452e+02
3.992383e+02
4.014679e+02
4.030054e+02
4.037066e+02
4.046413e+02
4.065565e+02
4.091631e+02
4.126617e+02
4.161150e+02
4.190922e+02
4.202201e+02
4.208145e+02
4.198211e+02
4.171265e+02
4.137754e+02
4.104502e+02
4.059928e+02
4.016004e+02
3.971270e+02
3.941669e+02
3.916486e+02
3.906241e+02
3.908211e+02
3.908987e+02
3.909525e+02
3.897991e+02
3.874757e+02
3.853864e+02
3.826565e+02
3.795977e+02
3.772226e+02
3.753197e+02
3.732438e+02
3.718528e+02
3.698291e+02
3.675329e+02
3.649374e+02
3.620760e+02
3.590964e+02
3.570140e+02
3.544374e+02
3.508839e+02
3.461420e+02
3.396546e+02
3.324340e+02
3.248789e+02
3.152686e+02
3.040691e+02
2.928330e+02
2.815472e+02
2.715843e+02
2.607640e+02
2.505192e+02
2.428667e+02
2.357818e+02
2.300337e+02
2.250404e+02
2.209499e+02
2.172263e+02
2.134551e+02
2.093377e+02
2.053054e+02
2.013401e+02
1.971371e+02
1.928877e+02
1.885150e+02
1.841322e+02
1.799367e+02
1.760873e+02
1.726640e+02
1.692738e+02
1.657976e+02
1.624504e+02
1.591117e+02
1.557049e+02
1.524196e+02
1.500265e+02
1.479665e+02
1.459479e+02
1.439903e+02
1.432099e+02
1.415282e+02
1.382505e+02
1.589729e+02
2.227945e+02
2.644784e+02
2.449556e+02
1.923021e+02
1.852727e+02
1.493354e+02
-2.195215e+00
-7.687511e+00
-1.190095e+01
-1.206610e+01
-1.140422e+01
-1.053051e+01
-9.573482e+00
-8.587585e+00
-7.517765e+00
-6.404232e+00
-5.074805e+00
-3.468724e+00
-1.706588e+00
5.482747e-01
3.015111e+00
5.577868e+00
8.414308e+00
1.158142e+01
1.494619e+01
1.834544e+01
2.189920e+01
2.578640e+01
2.984378e+01
3.390785e+01
3.814116e+01
4.286044e+01
4.800423e+01
5.365010e+01
5.939212e+01
6.522307e+01
7.137659e+01
7.763672e+01
8.344003e+01
8.918941e+01
9.512356e+01
1.010814e+02
1.074078e+02
1.135934e+02
1.195537e+02
1.256163e+02
1.319412e+02
1.382965e+02
1.446412e+02
1.505830e+02
1.562132e+02
1.625090e+02
1.690557e+02
1.755444e+02
1.820808e+02
1.890156e+02
1.957167e+02
2.027668e+02
2.095000e+02
2.161123e+02
2.221683e+02
2.280330e+02
2.335560e+02
2.387366e+02
2.444577e+02
2.501463e+02
2.563316e+02
2.627566e+02
2.687867e+02
2.749050e+02
2.816991e+02
2.889220e+02
2.971000e+02
3.052531e+02
3.134090e+02
3.210740e+02
3.287422e+02
3.357448e+02
3.421100e+02
3.479760e+02
3.538382e+02
3.585398e+02
3.631364e+02
3.696091e+02
3.771566e+02
3.859720e+02
3.949150e+02
4.027728e+02
4.096297e+02
4.152178e+02
4.208648e+02
4.274033e+02
4.330869e+02
4.393627e+02
4.439741e+02
4.477195e+02
4.506380e+02
4.526056e+02
4.540080e+02
4.560347e+02
4.588866e+02
4.636846e+02
4.685566e+02
4.730517e+02
4.768199e+02
4.808537e+02
4.838365e+02
4.852391e+02
4.852975e+02
4.837110e+02
4.806986e+02
4.764127e+02
4.711439e+02
4.661204e+02
4.617008e+02
4.575330e+02
4.532496e+02
4.503217e+02
4.477031e+02
4.450981e+02
4.430295e+02
4.412749e+02
4.398381e+02
4.381930e+02
4.357396e+02
4.312151e+02
4.268436e+02
4.230128e+02
4.197057e+02
4.151854e+02
4.118769e+02
4.084422e+02
4.054042e+02
4.017479e+02
3.973748e+02
3.922367e+02
3.862560e+02
3.802127e+02
3.728550e+02
3.658452e+02
3.573405e+02
3.490438e+02
3.398103e+02
3.283253e+02
3.162159e+02
3.037229e+02
2.904936e+02
2.798088e+02
2.691435e+02
2.592193e+02
2.512952e+02
2.448344e+02
2.381399e+02
2.323650e+02
2.275398e+02
2.239213e+02
2.206638e+02
2.167571e+02
2.128376e+02
2.087608e+02
2.037523e+02
1.987494e+02
1.936853e+02
1.889982e+02
1.843764e+02
1.797452e+02
1.753416e+02
1.714445e+02
1.677338e+02
1.639164e+02
1.601480e+02
1.563671e+02
1.528493e+02
1.499020e+02
1.474856e+02
1.455752e+02
1.436011e+02
1.409849e+02
1.397220e+02
1.603260e+02
2.271828e+02
2.736889e+02
2.478368e+02
1.941509e+02
1.827705e+02
2.617275e+02
2.094817e+01
1.203109e+01
6.348019e+00
5.266915e+00
6.020406e+00
7.193986e+00
8.765678e+00
1.048600e+01
1.253426e+01
1.479281e+01
1.724227e+01
1.977147e+01
2.249545e+01
2.555319e+01
2.870792e+01
3.200374e+01
3.568698e+01
3.974739e+01
4.375918e+01
4.774520e+01
5.186427e+01
5.608271e+01
6.068191e+01
6.621731e+01
7.246193e+01
7.897570e+01
8.557476e+01
9.204947e+01
9.869484e+01
1.054073e+02
1.119344e+02
1.186567e+02
1.254622e+02
1.320217e+02
1.382225e+02
1.444657e+02
1.505864e+02
1.566634e+02
1.628167e+02
1.689818e+02
1.753052e+02
1.819901e+02
1.890445e+02
1.962343e+02
2.035390e+02
2.115934e+02
2.204078e+02
2.289940e+02
2.365706e+02
2.435815e+02
2.503328e+02
2.566932e+02
2.624965e+02
2.684044e+02
2.740541e+02
2.794785e+02
2.854111e+02
2.912604e+02
2.979816e+02
3.045889e+02
3.106689e+02
3.168831e+02
3.228037e+02
3.286032e+02
3.344592e+02
3.407689e+02
3.477902e+02
3.549637e+02
3.623009e+02
3.700741e+02
3.774219e+02
3.835926e+02
3.895711e+02
3.951591e+02
4.008697e+02
4.067760e+02
4.132947e+02
4.209578e+02
4.292996e+02
4.384525e+02
4.476262e+02
4.568069e+02
4.648524e+02
4.717804e+02
4.781534e+02
4.832630e+02
4.868397e+02
4.894625e+02
4.922014e+02
4.951015e+02
4.990827e+02
5.029915e+02
5.072257e+02
5.108893e+02
5.148279e+02
5.187007e+02
5.223604e+02
5.276707e+02
5.326012e+02
5.367069e+02
5.398856e+02
5.414957e+02
5.417557e+02
5.388386e+02
5.350174e+02
5.307978e+02
5.263172e+02
5.223858e+02
5.185507e+02
5.137396e+02
5.085888e+02
5.027634e+02
4.973678e+02
4.924039e+02
4.882977e+02
4.861116e+02
4.847022e+02
4.826298e+02
4.801805e+02
4.758266e+02
4.714235e+02
4.670974e+02
4.629383e+02
4.579012e+02
4.523307e+02
4.462121e+02
4.397136e+02
4.342761e+02
4.286189e+02
4.224088e+02
4.143427e+02
4.046108e+02
3.944090e+02
3.847648e+02
3.753197e+02
3.663401e+02
3.567198e+02
3.454352e+02
3.333239e+02
3.209564e+02
3.101627e+02
2.992159e+02
2.882142e+02
2.780800e+02
2.695544e+02
2.616661e+02
2.547853e+02
2.488573e+02
2.426109e+02
2.371206e+02
2.313167e+02
2.263017e+02
2.211761e+02
2.157173e+02
2.107890e+02
2.057937e+02
2.010912e+02
1.963945e+02
1.920841e+02
1.876784e+02
1.826333e+02
1.775662e+02
1.728064e+02
1.678923e+02
1.632677e+02
1.588437e+02
1.551583e+02
1.515973e+02
1.487340e+02
1.463869e+02
1.445965e+02
1.423503e+02
1.397395e+02
1.594146e+02
2.278217e+02
2.817563e+02
2.495802e+02
1.961165e+02
1.815925e+02
4.247810e+02
5.936753e+01
3.875843e+01
3.638686e+01
3.916996e+01
4.144166e+01
4.382398e+01
4.636537e+01
4.878466e+01
5.122671e+01
5.381073e+01
5.660343e+01
5.967020e+01
6.286681e+01
6.621527e+01
6.980208e+01
7.356076e+01
7.763830e+01
8.174817e+01
8.631564e+01
9.124721e+01
9.678201e+01
1.027868e+02
1.096153e+02
1.164769e+02
1.236667e+02
1.311730e+02
1.385463e+02
1.459741e+02
1.529087e+02
1.598271e+02
1.666375e+02
1.732692e+02
1.796711e+02
1.856457e+02
1.915912e+02
1.977388e+02