/*--------------------------------*- C++ -*----------------------------------*\
| =========                 |                                                 |
| \\      /  F ield         | OpenFOAM: The Open Source CFD Toolbox           |
|  \\    /   O peration     | Version:  v2406                                 |
|   \\  /    A nd           | Website:  www.openfoam.com                      |
|    \\/     M anipulation  |                                                 |
\*---------------------------------------------------------------------------*/
FoamFile
{
    version     2.0;
    format      ascii;
    class       volScalarField;
    location    "predicted";
    object      k;
}
// * * * * * * * * * * * * * * * * * * * * * * * * * * * * * * * * * * * * * //

dimensions      [0 2 -2 0 0 0 0];

internalField   nonuniform List<scalar>
49181
(
1.080958e+00
1.416233e+00
1.276900e+00
1.399300e+00
1.438525e+00
1.468504e+00
1.494666e+00
1.518459e+00
1.531037e+00
1.550594e+00
1.542750e+00
1.541610e+00
1.538900e+00
1.515561e+00
1.482292e+00
1.435013e+00
1.565612e+00
1.302376e+00
1.392208e+00
6.427592e-01
6.907235e-01
7.905168e-01
8.395388e-01
8.954951e-01
9.501187e-01
1.010296e+00
1.079158e+00
1.144584e+00
1.193596e+00
1.226153e+00
1.199526e+00
1.107340e+00
9.950359e-01
9.206751e-01
9.797867e-01
1.226000e+00
1.193056e+00
6.169788e-01
5.467514e-01
5.171041e-01
5.312081e-01
5.536946e-01
5.899836e-01
6.315211e-01
6.921127e-01
7.676607e-01
8.252786e-01
8.579619e-01
8.378590e-01
7.137015e-01
5.989566e-01
5.430738e-01
5.494867e-01
6.459655e-01
1.273880e+00
5.914595e-01
4.584390e-01
4.178039e-01
4.201581e-01
4.336573e-01
4.499086e-01
4.679241e-01
4.914616e-01
5.206108e-01
5.369924e-01
5.713077e-01
5.632031e-01
4.892761e-01
4.341107e-01
4.049393e-01
4.090237e-01
4.389239e-01
1.274892e+00
5.431396e-01
4.284518e-01
3.786510e-01
3.681566e-01
3.736809e-01
3.807764e-01
3.874622e-01
3.967763e-01
4.067726e-01
4.163675e-01
4.269098e-01
4.290336e-01
3.938424e-01
3.667082e-01
3.524953e-01
3.540568e-01
3.634239e-01
1.268956e+00
5.150521e-01
4.215721e-01
3.753562e-01
3.549847e-01
3.522773e-01
3.513934e-01
3.495906e-01
3.468502e-01
3.447897e-01
3.456238e-01
3.513205e-01
3.600127e-01
3.494382e-01
3.450581e-01
3.427316e-01
3.438716e-01
3.330302e-01
1.257473e+00
4.976070e-01
4.249374e-01
3.759951e-01
3.548527e-01
3.473892e-01
3.397965e-01
3.319592e-01
3.249414e-01
3.203572e-01
3.169782e-01
3.194329e-01
3.309775e-01
3.281208e-01
3.401560e-01
3.417969e-01
3.431637e-01
3.190048e-01
1.237049e+00
4.798745e-01
4.273511e-01
3.774671e-01
3.513123e-01
3.414365e-01
3.342783e-01
3.263516e-01
3.189063e-01
3.123363e-01
3.078862e-01
3.087594e-01
3.195482e-01
3.229208e-01
3.351672e-01
3.396322e-01
3.399645e-01
3.169835e-01
1.200971e+00
4.634005e-01
4.344826e-01
3.807427e-01
3.548595e-01
3.445292e-01
3.365648e-01
3.299722e-01
3.230319e-01
3.165590e-01
3.111056e-01
3.097578e-01
3.197673e-01
3.266436e-01
3.386134e-01
3.439578e-01
3.447849e-01
3.230954e-01
1.154593e+00
4.527046e-01
4.317714e-01
3.809422e-01
3.600173e-01
3.508743e-01
3.429378e-01
3.360937e-01
3.298380e-01
3.244086e-01
3.183272e-01
3.164136e-01
3.258679e-01
3.328894e-01
3.463750e-01
3.516828e-01
3.534106e-01
3.334634e-01
1.101256e+00
4.513648e-01
4.259457e-01
3.792851e-01
3.618797e-01
3.579113e-01
3.529236e-01
3.463039e-01
3.404342e-01
3.344729e-01
3.293552e-01
3.277525e-01
3.370366e-01
3.428748e-01
3.544884e-01
3.526283e-01
3.555094e-01
3.427520e-01
1.053813e+00
4.497756e-01
4.236433e-01
3.793539e-01
3.627068e-01
3.584903e-01
3.551913e-01
3.519316e-01
3.466239e-01
3.423171e-01
3.381053e-01
3.372685e-01
3.468800e-01
3.485321e-01
3.542986e-01
3.535644e-01
3.560240e-01
3.452840e-01
1.013422e+00
4.452849e-01
4.200342e-01
3.806375e-01
3.648398e-01
3.605025e-01
3.572946e-01
3.540582e-01
3.513876e-01
3.477605e-01
3.440972e-01
3.439926e-01
3.525276e-01
3.523868e-01
3.561525e-01
3.545103e-01
3.572790e-01
3.466536e-01
9.732009e-01
4.399323e-01
4.181839e-01
3.819789e-01
3.664833e-01
3.617664e-01
3.586378e-01
3.561616e-01
3.535714e-01
3.510095e-01
3.491805e-01
3.489627e-01
3.577965e-01
3.549013e-01
3.568587e-01
3.546559e-01
3.568160e-01
3.472467e-01
9.406089e-01
4.349947e-01
4.168345e-01
3.827083e-01
3.679319e-01
3.628248e-01
3.592412e-01
3.565000e-01
3.541441e-01
3.521368e-01
3.506501e-01
3.527457e-01
3.605069e-01
3.557775e-01
3.574530e-01
3.558837e-01
3.577595e-01
3.470868e-01
9.153533e-01
4.341509e-01
4.137105e-01
3.798092e-01
3.692889e-01
3.647590e-01
3.607730e-01
3.581278e-01
3.559464e-01
3.540833e-01
3.530568e-01
3.552315e-01
3.630038e-01
3.574790e-01
3.592238e-01
3.574919e-01
3.599163e-01
3.481899e-01
8.915795e-01
4.305443e-01
4.107495e-01
3.774933e-01
3.697785e-01
3.678190e-01
3.649026e-01
3.617396e-01
3.592737e-01
3.574927e-01
3.565972e-01
3.589932e-01
3.662951e-01
3.611347e-01
3.629928e-01
3.567156e-01
3.600386e-01
3.533059e-01
8.572272e-01
4.247832e-01
4.083312e-01
3.769703e-01
3.674774e-01
3.689382e-01
3.691178e-01
3.681597e-01
3.662513e-01
3.647291e-01
3.635146e-01
3.653956e-01
3.731974e-01
3.682141e-01
3.640384e-01
3.523394e-01
3.568187e-01
3.573505e-01
8.433464e-01
4.154399e-01
4.012442e-01
3.698503e-01
3.608797e-01
3.628335e-01
3.659058e-01
3.686845e-01
3.704740e-01
3.704897e-01
3.698478e-01
3.718530e-01
3.795959e-01
3.703172e-01
3.590073e-01
3.492980e-01
3.535219e-01
3.548982e-01
9.080808e-01
4.068739e-01
3.850043e-01
3.568700e-01
3.504537e-01
3.521911e-01
3.552143e-01
3.586399e-01
3.608879e-01
3.622796e-01
3.623335e-01
3.652989e-01
3.727132e-01
3.612660e-01
3.505606e-01
3.408361e-01
3.434333e-01
3.438056e-01
1.027228e+00
4.334764e-01
3.799277e-01
3.546708e-01
3.495374e-01
3.519262e-01
3.548585e-01
3.565134e-01
3.560412e-01
3.547622e-01
3.539411e-01
3.570516e-01
3.655129e-01
3.581741e-01
3.480210e-01
3.392104e-01
3.410688e-01
3.562664e-01
1.340048e+00
5.436530e-01
4.204198e-01
3.920853e-01
3.858929e-01
3.831498e-01
3.795667e-01
3.768932e-01
3.746567e-01
3.727912e-01
3.718392e-01
3.747529e-01
3.825120e-01
3.740059e-01
3.766808e-01
3.747262e-01
3.847760e-01
3.879476e-01
1.448220e+00
5.321645e-01
4.146067e-01
3.832718e-01
3.743766e-01
3.709328e-01
3.677016e-01
3.650415e-01
3.628309e-01
3.607577e-01
3.596697e-01
3.622016e-01
3.703145e-01
3.615520e-01
3.618411e-01
3.612909e-01
3.681502e-01
3.840789e-01
1.480633e+00
5.194273e-01
4.025368e-01
3.742665e-01
3.658246e-01
3.622384e-01
3.589141e-01
3.561284e-01
3.538414e-01
3.518138e-01
3.509073e-01
3.541218e-01
3.622948e-01
3.527204e-01
3.534544e-01
3.521509e-01
3.582491e-01
3.706630e-01
1.471448e+00
5.052764e-01
3.963603e-01
3.713161e-01
3.648572e-01
3.612503e-01
3.579347e-01
3.552110e-01
3.528222e-01
3.510884e-01
3.499955e-01
3.535102e-01
3.619551e-01
3.519204e-01
3.524150e-01
3.509260e-01
3.559886e-01
3.674057e-01
1.468089e+00
4.944915e-01
3.942730e-01
3.706233e-01
3.665025e-01
3.632260e-01
3.597082e-01
3.572717e-01
3.551247e-01
3.532020e-01
3.523291e-01
3.555785e-01
3.640266e-01
3.530020e-01
3.542047e-01
3.519210e-01
3.566954e-01
3.669809e-01
1.486857e+00
5.108852e-01
4.031555e-01
3.799734e-01
3.757500e-01
3.741073e-01
3.706241e-01
3.677093e-01
3.648606e-01
3.622400e-01
3.606239e-01
3.638518e-01
3.710507e-01
3.599143e-01
3.594278e-01
3.568373e-01
3.629833e-01
3.747403e-01
1.521603e+00
5.510766e-01
4.409581e-01
4.084396e-01
4.029564e-01
4.013677e-01
4.000053e-01
3.976884e-01
3.937804e-01
3.875282e-01
3.811502e-01
3.802599e-01
3.896579e-01
3.763620e-01
3.736871e-01
3.619884e-01
3.799200e-01
3.950902e-01
1.537736e+00
5.778628e-01
4.931901e-01
4.417661e-01
4.273251e-01
4.303506e-01
4.329018e-01
4.322810e-01
4.302339e-01
4.457616e-01
4.674764e-01
4.888014e-01
4.831139e-01
4.517901e-01
4.241566e-01
4.188224e-01
4.434535e-01
5.007839e-01
1.157141e+00
1.289365e+00
1.037687e+00
1.016422e+00
1.040101e+00
1.075776e+00
1.109400e+00
1.151266e+00
1.214456e+00
1.347399e+00
1.443360e+00
1.482037e+00
1.483337e+00
1.471947e+00
1.458876e+00
1.470993e+00
1.476140e+00
1.511334e+00
-1.031948e-01
2.787158e-01
3.414748e-01
2.913345e-01
2.991942e-01
3.044195e-01
3.096752e-01
3.149512e-01
3.203141e-01
3.258142e-01
3.313977e-01
3.370589e-01
3.429734e-01
3.484176e-01
3.534863e-01
3.580429e-01
3.624561e-01
3.672592e-01
3.722775e-01
3.771846e-01
3.819749e-01
3.869441e-01
3.919433e-01
3.967247e-01
4.013389e-01
4.059269e-01
4.105662e-01
4.152269e-01
4.199087e-01
4.248134e-01
4.305324e-01
4.370271e-01
4.425767e-01
4.470038e-01
4.517009e-01
4.565116e-01
4.610978e-01
4.651067e-01
4.687023e-01
4.720510e-01
4.757692e-01
4.810044e-01
4.864382e-01
4.921293e-01
4.977952e-01
5.036415e-01
5.100585e-01
5.177087e-01
5.260042e-01
5.338644e-01
5.420253e-01
5.493080e-01
5.568036e-01
5.655712e-01
5.747607e-01
5.846655e-01
5.964057e-01
6.083381e-01
6.196717e-01
6.313325e-01
6.435943e-01
6.570733e-01
6.715382e-01
6.861367e-01
7.003397e-01
7.150144e-01
7.315140e-01
7.476758e-01
7.626165e-01
7.748685e-01
7.891156e-01
8.036874e-01
8.163166e-01
8.287939e-01
8.423156e-01
8.556188e-01
8.705718e-01
8.848944e-01
8.982789e-01
9.106252e-01
9.219611e-01
9.315491e-01
9.386362e-01
9.445373e-01
9.489454e-01
9.527319e-01
9.572428e-01
9.614466e-01
9.656714e-01
9.667292e-01
9.658369e-01
9.622270e-01
9.564107e-01
9.496104e-01
9.418753e-01
9.306558e-01
9.189856e-01
9.055391e-01
8.944673e-01
8.851826e-01
8.775643e-01
8.753452e-01
8.740483e-01
8.709329e-01
8.685217e-01
8.649836e-01
8.629970e-01
8.605074e-01
8.576891e-01
8.561156e-01
8.529929e-01
8.535783e-01
8.523239e-01
8.506718e-01
8.479820e-01
8.440619e-01
8.411372e-01
8.404482e-01
8.392626e-01
8.354359e-01
8.342544e-01
8.349249e-01
8.360390e-01
8.393069e-01
8.419974e-01
8.441622e-01
8.471844e-01
8.546662e-01
8.638506e-01
8.729158e-01
8.800493e-01
8.875639e-01
8.966868e-01
9.017952e-01
9.067952e-01
9.160027e-01
9.232954e-01
9.308909e-01
9.376091e-01
9.414116e-01
9.420361e-01
9.408241e-01
9.382531e-01
9.347400e-01
9.302574e-01
9.258559e-01
9.237109e-01
9.212894e-01
9.194200e-01
9.182397e-01
9.161743e-01
9.140467e-01
9.105605e-01
9.053341e-01
8.993598e-01
8.906926e-01
8.815593e-01
8.723244e-01
8.634577e-01
8.546642e-01
8.456357e-01
8.358365e-01
8.258730e-01
8.140930e-01
8.001316e-01
7.856443e-01
7.728515e-01
7.599121e-01
7.465060e-01
7.345661e-01
7.247604e-01
7.166695e-01
7.210195e-01
7.574180e-01
8.460127e-01
9.558905e-01
1.002619e+00
1.079321e+00
1.103576e+00
1.166368e+00
2.773944e-01
1.245795e-01
7.475037e-02
1.179835e-01
1.283975e-01
1.361062e-01
1.451220e-01
1.547056e-01
1.643818e-01
1.741329e-01
1.840480e-01
1.936845e-01
2.032271e-01
2.128820e-01
2.223010e-01
2.318008e-01
2.409241e-01
2.498480e-01
2.588152e-01
2.674869e-01
2.748739e-01
2.822284e-01
2.894410e-01
2.967255e-01
3.040444e-01
3.110542e-01
3.181153e-01
3.251870e-01
3.326132e-01
3.402824e-01
3.483137e-01
3.566793e-01
3.655381e-01
3.743931e-01
3.834388e-01
3.926417e-01
4.020951e-01
4.120665e-01
4.226339e-01
4.330986e-01
4.430024e-01
4.527169e-01
4.637320e-01
4.755092e-01
4.874204e-01
4.996899e-01
5.109122e-01
5.220876e-01
5.337299e-01
5.466829e-01
5.603550e-01
5.755686e-01
5.908219e-01
6.062607e-01
6.222115e-01
6.385906e-01
6.550656e-01
6.709864e-01
6.862075e-01
7.012484e-01
7.158939e-01
7.303858e-01
7.467979e-01
7.647885e-01
7.829319e-01
7.988767e-01
8.158260e-01
8.347628e-01
8.543319e-01
8.751058e-01
8.978270e-01
9.213266e-01
9.452596e-01
9.702254e-01
9.953062e-01
1.020105e+00
1.045777e+00
1.070553e+00
1.095886e+00
1.121037e+00
1.146317e+00
1.172038e+00
1.196626e+00
1.220298e+00
1.243827e+00
1.266884e+00
1.288796e+00
1.312723e+00
1.337826e+00
1.361150e+00
1.382929e+00
1.402758e+00
1.422473e+00
1.445744e+00
1.469745e+00
1.493962e+00
1.517355e+00
1.536420e+00
1.548496e+00
1.555505e+00
1.557748e+00
1.557603e+00
1.555310e+00
1.554708e+00
1.555585e+00
1.555759e+00
1.552026e+00
1.549041e+00
1.543741e+00
1.538406e+00
1.535223e+00
1.533241e+00
1.529063e+00
1.525476e+00
1.521635e+00
1.517088e+00
1.512561e+00
1.507659e+00
1.503195e+00
1.499042e+00
1.498051e+00
1.498724e+00
1.499159e+00
1.496900e+00
1.489101e+00
1.479769e+00
1.467299e+00
1.452792e+00
1.438027e+00
1.422080e+00
1.405803e+00
1.390207e+00
1.375476e+00
1.361642e+00
1.351733e+00
1.345173e+00
1.339289e+00
1.332429e+00
1.321596e+00
1.305159e+00
1.285293e+00
1.271173e+00
1.254828e+00
1.237317e+00
1.218429e+00
1.198049e+00
1.177909e+00
1.159183e+00
1.141619e+00
1.125402e+00
1.107669e+00
1.087750e+00
1.067765e+00
1.048596e+00
1.031694e+00
1.015689e+00
1.000194e+00
9.851326e-01
9.693024e-01
9.549635e-01
9.414582e-01
9.262625e-01
9.102429e-01
8.948669e-01
8.782907e-01
8.599241e-01
8.418069e-01
8.247640e-01
8.091919e-01
7.940628e-01
7.805516e-01
7.706371e-01
7.735831e-01
8.150999e-01
9.742661e-01
1.159800e+00
1.539613e+00
1.856594e+00
1.956151e+00
1.827646e+00
3.564813e-01
1.004806e-01
1.691822e-01
1.870277e-01
1.917562e-01
1.999167e-01
2.090559e-01
2.182114e-01
2.273443e-01
2.369820e-01
2.470659e-01
2.574842e-01
2.676795e-01
2.780455e-01
2.886964e-01
2.990630e-01
3.092083e-01
3.193048e-01
3.296419e-01
3.402174e-01
3.508912e-01
3.621412e-01
3.735799e-01
3.847694e-01
3.957683e-01
4.068854e-01
4.172325e-01
4.274546e-01
4.389904e-01
4.512722e-01
4.639890e-01
4.765971e-01
4.892533e-01
5.015569e-01
5.136694e-01
5.258538e-01
5.382963e-01
5.506930e-01
5.631492e-01
5.762143e-01
5.898657e-01
6.047769e-01
6.203640e-01
6.363645e-01
6.531965e-01
6.705412e-01
6.880791e-01
7.063853e-01
7.260840e-01
7.489758e-01
7.773201e-01
8.063223e-01
8.345201e-01
8.629336e-01
8.908939e-01
9.200714e-01
9.499846e-01
9.827789e-01
1.015079e+00
1.046028e+00
1.076741e+00
1.107865e+00
1.137994e+00
1.167256e+00
1.197803e+00
1.229102e+00
1.260022e+00
1.292266e+00
1.324964e+00
1.358807e+00
1.392514e+00
1.425231e+00
1.457186e+00
1.488833e+00
1.521707e+00
1.553925e+00
1.584389e+00
1.612865e+00
1.641363e+00
1.668861e+00
1.695617e+00
1.723140e+00
1.752977e+00
1.782346e+00
1.812567e+00
1.846519e+00
1.879297e+00
1.915284e+00
1.950655e+00
1.984623e+00
2.018308e+00
2.051024e+00
2.082073e+00
2.110195e+00
2.137674e+00
2.163504e+00
2.189079e+00
2.212393e+00
2.227026e+00
2.232019e+00
2.231208e+00
2.228785e+00
2.224244e+00
2.219359e+00
2.215765e+00
2.212774e+00
2.212146e+00
2.214896e+00
2.218747e+00
2.228085e+00
2.239506e+00
2.250227e+00
2.262283e+00
2.275868e+00
2.290019e+00
2.300197e+00
2.306139e+00
2.310015e+00
2.315046e+00
2.319698e+00
2.320475e+00
2.320183e+00
2.317515e+00
2.310781e+00
2.301017e+00
2.288818e+00
2.273830e+00
2.252536e+00
2.229751e+00
2.200049e+00
2.170691e+00
2.135567e+00
2.097592e+00
2.060443e+00
2.021898e+00
1.982559e+00
1.945672e+00
1.908267e+00
1.869386e+00
1.838732e+00
1.813430e+00
1.788541e+00
1.763450e+00
1.741340e+00
1.721742e+00
1.704811e+00
1.684439e+00
1.666582e+00
1.649524e+00
1.634204e+00
1.619594e+00
1.604318e+00
1.589089e+00
1.573767e+00
1.558118e+00
1.541053e+00
1.522308e+00
1.500917e+00
1.478170e+00
1.456708e+00
1.435260e+00
1.413515e+00
1.389294e+00
1.364714e+00
1.340804e+00
1.319070e+00
1.295967e+00
1.273113e+00
1.250977e+00
1.229376e+00
1.211319e+00
1.196512e+00
1.197981e+00
1.260023e+00
1.404720e+00
1.619271e+00
2.185251e+00
2.606959e+00
2.606917e+00
2.479448e+00
2.971718e-01
1.501059e-01
1.938873e-01
2.155696e-01
2.232887e-01
2.318568e-01
2.415255e-01
2.513144e-01
2.610276e-01
2.710616e-01
2.814149e-01
2.918497e-01
3.022874e-01
3.129865e-01
3.244590e-01
3.362932e-01
3.486369e-01
3.614083e-01
3.738590e-01
3.865833e-01
3.998443e-01
4.140045e-01
4.287422e-01
4.432554e-01
4.577629e-01
4.723737e-01
4.870814e-01
5.017591e-01
5.164868e-01
5.319772e-01
5.478884e-01
5.634885e-01
5.791221e-01
5.947668e-01
6.097610e-01
6.242210e-01
6.385634e-01
6.537161e-01
6.692411e-01
6.850055e-01
7.029515e-01
7.220239e-01
7.424088e-01
7.668572e-01
7.946339e-01
8.242408e-01
8.575615e-01
8.935378e-01
9.301199e-01
9.681590e-01
1.005874e+00
1.041883e+00
1.077733e+00
1.114543e+00
1.153586e+00
1.194038e+00
1.235838e+00
1.278587e+00
1.320686e+00
1.361966e+00
1.403814e+00
1.446395e+00
1.488574e+00
1.529281e+00
1.570866e+00
1.613774e+00
1.655141e+00
1.695894e+00
1.738135e+00
1.782166e+00
1.824053e+00
1.864363e+00
1.904690e+00
1.947689e+00
1.990786e+00
2.032060e+00
2.069665e+00
2.102942e+00
2.134298e+00
2.167389e+00
2.201190e+00
2.235193e+00
2.273768e+00
2.315072e+00
2.359383e+00
2.405052e+00
2.450676e+00
2.494302e+00
2.542770e+00
2.591550e+00
2.644603e+00
2.693891e+00
2.735071e+00
2.769848e+00
2.801486e+00
2.829627e+00
2.861644e+00
2.896760e+00
2.925531e+00
2.947569e+00
2.961982e+00
2.970536e+00
2.973787e+00
2.974757e+00
2.976133e+00
2.974719e+00
2.969671e+00
2.967410e+00
2.965121e+00
2.965943e+00
2.971697e+00
2.978487e+00
2.987397e+00
2.998318e+00
3.011786e+00
3.025351e+00
3.034981e+00
3.048433e+00
3.063385e+00
3.077549e+00
3.087239e+00
3.094613e+00
3.098911e+00
3.103748e+00
3.106042e+00
3.104754e+00
3.102011e+00
3.094627e+00
3.082964e+00
3.062923e+00
3.035963e+00
3.004001e+00
2.973354e+00
2.943451e+00
2.911373e+00
2.876689e+00
2.838264e+00
2.797865e+00
2.755764e+00
2.711778e+00
2.663521e+00
2.612548e+00
2.559976e+00
2.508898e+00
2.455517e+00
2.406980e+00
2.363520e+00
2.324878e+00
2.292242e+00
2.266145e+00
2.239036e+00
2.213682e+00
2.191059e+00
2.170044e+00
2.149653e+00
2.129375e+00
2.107617e+00
2.086677e+00
2.062759e+00
2.040221e+00
2.019647e+00
1.997051e+00
1.971223e+00
1.943948e+00
1.915510e+00
1.884289e+00
1.853243e+00
1.822037e+00
1.791666e+00
1.760537e+00
1.729630e+00
1.699995e+00
1.690333e+00
1.752197e+00
1.916065e+00
2.167140e+00
2.827208e+00
3.180508e+00
2.999155e+00
2.930943e+00
2.844913e-01
1.633426e-01
2.070410e-01
2.346226e-01
2.413545e-01
2.494881e-01
2.583000e-01
2.671948e-01
2.765592e-01
2.872326e-01
2.981463e-01
3.092311e-01
3.208661e-01
3.328903e-01
3.452994e-01
3.585157e-01
3.713933e-01
3.844937e-01
3.980911e-01
4.133461e-01
4.281340e-01
4.431896e-01
4.588914e-01
4.745741e-01
4.899463e-01
5.059962e-01
5.219563e-01
5.380709e-01
5.540670e-01
5.699225e-01
5.860624e-01
6.024596e-01
6.182271e-01
6.333938e-01
6.498321e-01
6.674521e-01
6.861418e-01
7.051696e-01
7.270839e-01
7.512930e-01
7.765092e-01
8.060198e-01
8.378602e-01
8.738744e-01
9.119985e-01
9.523140e-01
9.940464e-01
1.035371e+00
1.075693e+00
1.115372e+00
1.155334e+00
1.195806e+00
1.239997e+00
1.285220e+00
1.329952e+00
1.375692e+00
1.422303e+00
1.470949e+00
1.520195e+00
1.568045e+00
1.615646e+00
1.663240e+00
1.710229e+00
1.755960e+00
1.800763e+00
1.850205e+00
1.897261e+00
1.944211e+00
1.991539e+00
2.037730e+00
2.082751e+00
2.128713e+00
2.170538e+00
2.211568e+00
2.254925e+00
2.295092e+00
2.332972e+00
2.371594e+00
2.409334e+00
2.448065e+00
2.487691e+00
2.527152e+00
2.567899e+00
2.612049e+00
2.663413e+00
2.716073e+00
2.773048e+00
2.831674e+00
2.895081e+00
2.958042e+00
3.017244e+00
3.071823e+00
3.120307e+00
3.158824e+00
3.193785e+00
3.230327e+00
3.272810e+00
3.315069e+00
3.350887e+00
3.385168e+00
3.407408e+00
3.420428e+00
3.425496e+00
3.427624e+00
3.429291e+00
3.428646e+00
3.428497e+00
3.423159e+00
3.416354e+00
3.413887e+00
3.420296e+00
3.433259e+00
3.449217e+00
3.465521e+00
3.480690e+00
3.491330e+00
3.499315e+00
3.503419e+00
3.507132e+00
3.513004e+00
3.522602e+00
3.532382e+00
3.539649e+00
3.542781e+00
3.541983e+00
3.535772e+00
3.518621e+00
3.501205e+00
3.487429e+00
3.474931e+00
3.458376e+00
3.435575e+00
3.408159e+00
3.380185e+00
3.348715e+00
3.315800e+00
3.279472e+00
3.238158e+00
3.200110e+00
3.155338e+00
3.100286e+00
3.040766e+00
2.985106e+00
2.931783e+00
2.883125e+00
2.838622e+00
2.795241e+00
2.752712e+00
2.710802e+00
2.673950e+00
2.641929e+00
2.614583e+00
2.588449e+00
2.562499e+00
2.536746e+00
2.511029e+00
2.484071e+00
2.457215e+00
2.429989e+00
2.405890e+00
2.383479e+00
2.357875e+00
2.327240e+00
2.291342e+00
2.251149e+00
2.206069e+00
2.162117e+00
2.118975e+00
2.079922e+00
2.044491e+00
2.011203e+00
1.977361e+00
1.964888e+00
2.023098e+00
2.212795e+00
2.523996e+00
3.107094e+00
3.388489e+00
3.179785e+00
3.141592e+00
2.755989e-01
1.837507e-01
2.289072e-01
2.520856e-01
2.572854e-01
2.651123e-01
2.740688e-01
2.839241e-01
2.941858e-01
3.051052e-01
3.168478e-01
3.290960e-01
3.418254e-01
3.547153e-01
3.678870e-01
3.810458e-01
3.943537e-01
4.082382e-01
4.221613e-01
4.364742e-01
4.512461e-01
4.664715e-01
4.818136e-01
4.973803e-01
5.131899e-01
5.291498e-01
5.453697e-01
5.613904e-01
5.775761e-01
5.942474e-01
6.119073e-01
6.300841e-01
6.491988e-01
6.706980e-01
6.933857e-01
7.194188e-01
7.450422e-01
7.711498e-01
8.010964e-01
8.320878e-01
8.669124e-01
9.043939e-01
9.441925e-01
9.890338e-01
1.032096e+00
1.074620e+00
1.115888e+00
1.157660e+00
1.200389e+00
1.244262e+00
1.289365e+00
1.335229e+00
1.381770e+00
1.430307e+00
1.480292e+00
1.530594e+00
1.582054e+00
1.634150e+00
1.685092e+00
1.734330e+00
1.783039e+00
1.830234e+00
1.879061e+00
1.929096e+00
1.980024e+00
2.031246e+00
2.080615e+00
2.129068e+00
2.175259e+00
2.216300e+00
2.258286e+00
2.304103e+00
2.351167e+00
2.397668e+00
2.445062e+00
2.491308e+00
2.538647e+00
2.585943e+00
2.632333e+00
2.677792e+00
2.725470e+00
2.775028e+00
2.826009e+00
2.880025e+00
2.936120e+00
2.993993e+00
3.055779e+00
3.130474e+00
3.211558e+00
3.287429e+00
3.360096e+00
3.418152e+00
3.463034e+00
3.498866e+00
3.531350e+00
3.569301e+00
3.611609e+00
3.653796e+00
3.691332e+00
3.724871e+00
3.754403e+00
3.777269e+00
3.790993e+00
3.798160e+00
3.802903e+00
3.805617e+00
3.806761e+00
3.804621e+00
3.803495e+00
3.803207e+00
3.807777e+00
3.816218e+00
3.830252e+00
3.845830e+00
3.859531e+00
3.870223e+00
3.878357e+00
3.883936e+00
3.883943e+00
3.887894e+00
3.894873e+00
3.902268e+00
3.907287e+00
3.904899e+00
3.897411e+00
3.885770e+00
3.865419e+00
3.839496e+00
3.817039e+00
3.801249e+00
3.784248e+00
3.760120e+00
3.726829e+00
3.689543e+00
3.650826e+00
3.607588e+00
3.566388e+00
3.521432e+00
3.472827e+00
3.420593e+00
3.361002e+00
3.305905e+00
3.254571e+00
3.206322e+00
3.157420e+00
3.110342e+00
3.063029e+00
3.019109e+00
2.977768e+00
2.940222e+00
2.908766e+00
2.877677e+00
2.848594e+00
2.816993e+00
2.783729e+00
2.751731e+00
2.719913e+00
2.688251e+00
2.655332e+00
2.624856e+00
2.598870e+00
2.570577e+00
2.539979e+00
2.506542e+00
2.471902e+00
2.432243e+00
2.386765e+00
2.338363e+00
2.289264e+00
2.243308e+00
2.195959e+00
2.149697e+00
2.127447e+00
2.190513e+00
2.421550e+00
2.740726e+00
3.266765e+00
3.500845e+00
3.263943e+00
3.258499e+00
2.717827e-01
2.068054e-01
2.561517e-01
2.732183e-01
2.790551e-01
2.884445e-01
2.986336e-01
3.094117e-01
3.209637e-01
3.330097e-01
3.453334e-01
3.577588e-01
3.701711e-01
3.822835e-01
3.945697e-01
4.065851e-01
4.188165e-01
4.315202e-01
4.459708e-01
4.610372e-01
4.765230e-01
4.926286e-01
5.092625e-01
5.260146e-01
5.433309e-01
5.609531e-01
5.796734e-01
5.985276e-01
6.172326e-01
6.363550e-01
6.570849e-01
6.795127e-01
7.052013e-01
7.312111e-01
7.587534e-01
7.887426e-01
8.224639e-01
8.577957e-01
8.943900e-01
9.328758e-01
9.741890e-01
1.016692e+00
1.059541e+00
1.102929e+00
1.146968e+00
1.189080e+00
1.231677e+00
1.276392e+00
1.323457e+00
1.371859e+00
1.422469e+00
1.473647e+00
1.523994e+00
1.575383e+00
1.626992e+00
1.678048e+00
1.729579e+00
1.778452e+00
1.827450e+00
1.875368e+00
1.925652e+00
1.978173e+00
2.030767e+00
2.084299e+00
2.136960e+00
2.187844e+00
2.239491e+00
2.288678e+00
2.335758e+00
2.383069e+00
2.430252e+00
2.477272e+00
2.524445e+00
2.572379e+00
2.621355e+00
2.670381e+00
2.721600e+00
2.778656e+00
2.840898e+00
2.907043e+00
2.975132e+00
3.037368e+00
3.098848e+00
3.161005e+00
3.225066e+00
3.293836e+00
3.370629e+00
3.454795e+00
3.539808e+00
3.622337e+00
3.695665e+00
3.758388e+00
3.808652e+00
3.848690e+00
3.884673e+00
3.923544e+00
3.966283e+00
4.007584e+00
4.046404e+00
4.081670e+00
4.113477e+00
4.139890e+00
4.161339e+00
4.178941e+00
4.189914e+00
4.196024e+00
4.201123e+00
4.200614e+00
4.205356e+00
4.212209e+00
4.225038e+00
4.236722e+00
4.246443e+00
4.260788e+00
4.271427e+00
4.279259e+00
4.281761e+00
4.278884e+00
4.273865e+00
4.265474e+00
4.252361e+00
4.243703e+00
4.232740e+00
4.223662e+00
4.215058e+00
4.201018e+00
4.180789e+00
4.156935e+00
4.132033e+00
4.110606e+00
4.088763e+00
4.061668e+00
4.024402e+00
3.982620e+00
3.933470e+00
3.878386e+00
3.830259e+00
3.780367e+00
3.727221e+00
3.666867e+00
3.603486e+00
3.542270e+00
3.480762e+00
3.428771e+00
3.377538e+00
3.326729e+00
3.279495e+00
3.236171e+00
3.197713e+00
3.163632e+00
3.133228e+00
3.100701e+00
3.065740e+00
3.032641e+00
3.000864e+00
2.967977e+00
2.933487e+00
2.897957e+00
2.860514e+00
2.822977e+00
2.789081e+00
2.754899e+00
2.720681e+00
2.685224e+00
2.648249e+00
2.609142e+00
2.565218e+00
2.523744e+00
2.477822e+00
2.429352e+00
2.381295e+00
2.332283e+00
2.307850e+00
2.375439e+00
2.597895e+00
2.931828e+00
3.408922e+00
3.593460e+00
3.321749e+00
3.344321e+00
2.582756e-01
2.218297e-01
2.859410e-01
3.003340e-01
3.069197e-01
3.165889e-01
3.268325e-01
3.379628e-01
3.494810e-01
3.611078e-01
3.730350e-01
3.849838e-01
3.971049e-01
4.092610e-01
4.227513e-01
4.367865e-01
4.516856e-01
4.671700e-01
4.828193e-01
4.984031e-01
5.142065e-01
5.304956e-01
5.475638e-01
5.663850e-01
5.863832e-01
6.069747e-01
6.284315e-01
6.505797e-01
6.761532e-01
7.011792e-01
7.263779e-01
7.557963e-01
7.852422e-01
8.167653e-01
8.514731e-01
8.873487e-01
9.241579e-01
9.630955e-01
1.003376e+00
1.044932e+00
1.088198e+00
1.132216e+00
1.175724e+00
1.218741e+00
1.260666e+00
1.303917e+00
1.352100e+00
1.402210e+00
1.454111e+00
1.506539e+00
1.557781e+00
1.608048e+00
1.657951e+00
1.707182e+00
1.757132e+00
1.804617e+00
1.853030e+00
1.901361e+00
1.949484e+00
2.004089e+00
2.061304e+00
2.119366e+00
2.175738e+00
2.231234e+00
2.285179e+00
2.337900e+00
2.388396e+00
2.438253e+00
2.489213e+00
2.540718e+00
2.590719e+00
2.639993e+00
2.689272e+00
2.739113e+00
2.791465e+00
2.850581e+00
2.915566e+00
2.984353e+00
3.060687e+00
3.140739e+00
3.225365e+00
3.307519e+00
3.386518e+00
3.461455e+00
3.534985e+00
3.609202e+00
3.687530e+00
3.767864e+00
3.851040e+00
3.929791e+00
4.000996e+00
4.059612e+00
4.108159e+00
4.147399e+00
4.185189e+00
4.225744e+00
4.274741e+00
4.323543e+00
4.371173e+00
4.413754e+00
4.448768e+00
4.479128e+00
4.507957e+00
4.539158e+00
4.558179e+00
4.569483e+00
4.573618e+00
4.573583e+00
4.579358e+00
4.590868e+00
4.598797e+00
4.602902e+00
4.611512e+00
4.621441e+00
4.627733e+00
4.629742e+00
4.627201e+00
4.622365e+00
4.613308e+00
4.600336e+00
4.584299e+00
4.565681e+00
4.547314e+00
4.529821e+00
4.509854e+00
4.490964e+00
4.468279e+00
4.444038e+00
4.418245e+00
4.392197e+00
4.358651e+00
4.315960e+00
4.262522e+00
4.207673e+00
4.158826e+00
4.102083e+00
4.049812e+00
3.997826e+00
3.939483e+00
3.879409e+00
3.822398e+00
3.762594e+00
3.705933e+00
3.648160e+00
3.588618e+00
3.535002e+00
3.486171e+00
3.437291e+00
3.392788e+00
3.354184e+00
3.319245e+00
3.285070e+00
3.250704e+00
3.214400e+00
3.176004e+00
3.141021e+00
3.107008e+00
3.074023e+00
3.039826e+00
3.003486e+00
2.963049e+00
2.923233e+00
2.886362e+00
2.848612e+00
2.808860e+00
2.768143e+00
2.725906e+00
2.681675e+00
2.634619e+00
2.589160e+00
2.546989e+00
2.503894e+00
2.481204e+00
2.538924e+00
2.762726e+00
3.127778e+00
3.553593e+00
3.664941e+00
3.372102e+00
3.412629e+00
2.502106e-01
2.299056e-01
3.110087e-01
3.241206e-01
3.302303e-01
3.403242e-01
3.517893e-01
3.643164e-01
3.765956e-01
3.890832e-01
4.022524e-01
4.154821e-01
4.288033e-01
4.426127e-01
4.570882e-01
4.720226e-01
4.877818e-01
5.041642e-01
5.211010e-01
5.391689e-01
5.572937e-01
5.766223e-01
5.966466e-01
6.174073e-01
6.404899e-01
6.663764e-01
6.937424e-01
7.233291e-01
7.528336e-01
7.826109e-01
8.122675e-01
8.471617e-01
8.843119e-01
9.220967e-01
9.596302e-01
9.972171e-01
1.036801e+00
1.077636e+00
1.119255e+00
1.161641e+00
1.203850e+00
1.246646e+00
1.290819e+00
1.336739e+00
1.382882e+00
1.430595e+00
1.479442e+00
1.528701e+00
1.578824e+00
1.628569e+00
1.678759e+00
1.729002e+00
1.778047e+00
1.827201e+00
1.876854e+00
1.925521e+00
1.974621e+00
2.026557e+00
2.082521e+00
2.142970e+00
2.201938e+00
2.260914e+00
2.317594e+00
2.372105e+00
2.424713e+00
2.477463e+00
2.529189e+00
2.580498e+00
2.631487e+00
2.684225e+00
2.739550e+00
2.794433e+00
2.853050e+00
2.917295e+00
2.983740e+00
3.052896e+00
3.123909e+00
3.197416e+00
3.277294e+00
3.361837e+00
3.448001e+00
3.538162e+00
3.630476e+00
3.720607e+00
3.801506e+00
3.879516e+00
3.958180e+00
4.035421e+00
4.107773e+00
4.176400e+00
4.240971e+00
4.298758e+00
4.350750e+00
4.400448e+00
4.446030e+00
4.492977e+00
4.541575e+00
4.590303e+00
4.639143e+00
4.684000e+00
4.722579e+00
4.757688e+00
4.788973e+00
4.820508e+00
4.842357e+00
4.855556e+00
4.863579e+00
4.870006e+00
4.876456e+00
4.885263e+00
4.888494e+00
4.891726e+00
4.887362e+00
4.886375e+00
4.884577e+00
4.882080e+00
4.880427e+00
4.877308e+00
4.868011e+00
4.856960e+00
4.845844e+00
4.833736e+00
4.820005e+00
4.801662e+00
4.779063e+00
4.748458e+00
4.709938e+00
4.666217e+00
4.629699e+00
4.597788e+00
4.561992e+00
4.510904e+00
4.448640e+00
4.384718e+00
4.332343e+00
4.277869e+00
4.223457e+00
4.166712e+00
4.107545e+00
4.049196e+00
3.995485e+00
3.939425e+00
3.881502e+00
3.825484e+00
3.772919e+00
3.721316e+00
3.668288e+00
3.618488e+00
3.574165e+00
3.530042e+00
3.490220e+00
3.452862e+00
3.417101e+00
3.378803e+00
3.335261e+00
3.292371e+00
3.252167e+00
3.213797e+00
3.175949e+00
3.141485e+00
3.104391e+00
3.066602e+00
3.031050e+00
2.993709e+00
2.953507e+00
2.912480e+00
2.870150e+00
2.826661e+00
2.782672e+00
2.737968e+00
2.692661e+00
2.650361e+00
2.624638e+00
2.679938e+00
2.909360e+00
3.298382e+00
3.686823e+00
3.712765e+00
3.405834e+00
3.460421e+00
3.015148e-01
2.314293e-01
3.325420e-01
3.451025e-01
3.564415e-01
3.685701e-01
3.810448e-01
3.936742e-01
4.062916e-01
4.195700e-01
4.334068e-01
4.477254e-01
4.622298e-01
4.764214e-01
4.917096e-01
5.085762e-01
5.263841e-01
5.445152e-01
5.629206e-01
5.830806e-01
6.048991e-01
6.297864e-01
6.565633e-01
6.855749e-01
7.150144e-01
7.450748e-01
7.765612e-01
8.085806e-01
8.417216e-01
8.798685e-01
9.180965e-01
9.578666e-01
9.983592e-01
1.037808e+00
1.076071e+00
1.115551e+00
1.155789e+00
1.196146e+00
1.236693e+00
1.277226e+00
1.318300e+00
1.362909e+00
1.408416e+00
1.455253e+00
1.501596e+00
1.548370e+00
1.597527e+00
1.646597e+00
1.694935e+00
1.743156e+00
1.792026e+00
1.842979e+00
1.893118e+00
1.944261e+00
1.995739e+00
2.047095e+00
2.100680e+00
2.155308e+00
2.211755e+00
2.269042e+00
2.327752e+00
2.384141e+00
2.438648e+00
2.492962e+00
2.548047e+00
2.605018e+00
2.660796e+00
2.713952e+00
2.767443e+00
2.826838e+00
2.893128e+00
2.962316e+00
3.034200e+00
3.105457e+00
3.178388e+00
3.249451e+00
3.319134e+00
3.390762e+00
3.467764e+00
3.550210e+00
3.638052e+00