/*--------------------------------*- C++ -*----------------------------------*\
| =========                 |                                                 |
| \\      /  F ield         | OpenFOAM: The Open Source CFD Toolbox           |
|  \\    /   O peration     | Version:  v2406                                 |
|   \\  /    A nd           | Website:  www.openfoam.com                      |
|    \\/     M anipulation  |                                                 |
\*---------------------------------------------------------------------------*/
FoamFile
{
    version     2.0;
    format      ascii;
    class       volScalarField;
    location    "predicted";
    object      nut;
}
// * * * * * * * * * * * * * * * * * * * * * * * * * * * * * * * * * * * * * //

dimensions      [0 2 -1 0 0 0 0];

internalField   nonuniform List<scalar>
49181
(
-5.731221e-04
2.459985e-04
2.388716e-04
6.483001e-05
-9.598990e-07
-1.570059e-05
-2.297133e-05
-2.472414e-05
-2.463048e-05
-3.933209e-06
-5.845041e-06
-6.177729e-06
-3.374177e-06
-2.747436e-06
5.797074e-06
6.750649e-06
5.445435e-05
-6.884476e-05
2.515635e-04
3.772001e-04
4.339521e-04
3.253960e-04
2.782260e-04
2.726220e-04
2.676740e-04
2.597706e-04
2.573068e-04
2.575922e-04
2.601664e-04
2.617506e-04
2.672001e-04
2.555489e-04
2.529695e-04
2.552653e-04
3.035576e-04
3.388294e-04
2.643090e-04
4.821722e-04
6.019488e-04
5.180205e-04
4.630971e-04
4.337592e-04
4.115699e-04
3.969156e-04
3.822930e-04
3.734828e-04
3.622340e-04
3.613365e-04
3.721602e-04
3.785086e-04
4.036568e-04
4.332237e-04
4.237855e-04
3.937584e-04
1.214254e-04
4.179659e-04
6.161015e-04
5.502643e-04
5.006277e-04
4.717901e-04
4.459308e-04
4.226539e-04
4.018501e-04
3.808474e-04
3.647108e-04
3.712294e-04
3.838692e-04
4.026781e-04
4.562141e-04
4.936714e-04
4.890068e-04
4.184108e-04
8.931630e-05
4.284262e-04
6.577743e-04
6.063696e-04
5.640879e-04
5.404528e-04
5.209772e-04
5.039521e-04
4.885310e-04
4.735030e-04
4.553234e-04
4.515924e-04
4.666233e-04
4.929937e-04
5.340915e-04
5.633450e-04
5.603089e-04
5.060963e-04
1.098826e-04
4.894319e-04
7.115840e-04
6.781222e-04
6.446949e-04
6.249007e-04
6.071171e-04
5.906934e-04
5.741775e-04
5.584854e-04
5.475561e-04
5.434983e-04
5.566386e-04
5.794116e-04
6.195930e-04
6.445801e-04
6.424710e-04
5.923287e-04
1.393675e-04
5.599438e-04
7.547500e-04
7.266345e-04
7.021243e-04
6.881403e-04
6.756982e-04
6.627798e-04
6.495997e-04
6.372254e-04
6.262653e-04
6.221292e-04
6.344176e-04
6.530414e-04
6.835559e-04
6.989826e-04
6.985606e-04
6.595800e-04
1.738219e-04
6.271220e-04
7.911332e-04
7.647488e-04
7.415934e-04
7.293499e-04
7.179587e-04
7.066856e-04
6.960581e-04
6.861909e-04
6.780587e-04
6.745072e-04
6.838006e-04
6.986954e-04
7.244247e-04
7.368329e-04
7.358834e-04
7.033380e-04
1.999314e-04
6.837028e-04
8.177738e-04
7.906998e-04
7.691629e-04
7.575223e-04
7.474813e-04
7.388377e-04
7.299027e-04
7.215288e-04
7.142142e-04
7.103293e-04
7.182763e-04
7.324304e-04
7.522739e-04
7.630337e-04
7.622971e-04
7.353451e-04
2.118108e-04
7.315065e-04
8.308701e-04
8.080394e-04
7.909849e-04
7.802390e-04
7.703596e-04
7.615298e-04
7.534228e-04
7.458573e-04
7.374696e-04
7.325781e-04
7.407586e-04
7.552662e-04
7.760684e-04
7.870039e-04
7.871103e-04
7.610998e-04
2.243318e-04
7.621371e-04
8.362162e-04
8.162884e-04
8.029052e-04
7.971113e-04
7.900444e-04
7.820980e-04
7.740326e-04
7.661403e-04
7.586797e-04
7.541772e-04
7.621146e-04
7.762548e-04
7.938985e-04
7.975869e-04
7.987592e-04
7.813787e-04
2.387187e-04
7.833338e-04
8.391953e-04
8.204554e-04
8.088273e-04
8.038865e-04
7.990080e-04
7.935594e-04
7.864244e-04
7.794823e-04
7.728917e-04
7.697515e-04
7.779527e-04
7.883656e-04
8.005869e-04
8.034554e-04
8.050881e-04
7.912544e-04
2.533155e-04
7.958626e-04
8.400102e-04
8.244133e-04
8.134295e-04
8.090594e-04
8.046999e-04
8.004611e-04
7.959008e-04
7.898046e-04
7.836719e-04
7.810120e-04
7.887296e-04
7.971113e-04
8.059214e-04
8.074273e-04
8.093321e-04
7.975677e-04
2.679707e-04
8.053624e-04
8.424798e-04
8.279932e-04
8.175736e-04
8.127760e-04
8.088746e-04
8.050769e-04
8.016130e-04
7.972545e-04
7.930677e-04
7.903344e-04
7.983151e-04
8.028619e-04
8.095951e-04
8.107199e-04
8.121751e-04
8.015146e-04
2.844426e-04
8.143849e-04
8.462334e-04
8.307982e-04
8.216028e-04
8.168429e-04
8.125295e-04
8.082755e-04
8.045149e-04
8.015471e-04
7.981905e-04
7.975991e-04
8.043053e-04
8.062064e-04
8.133540e-04
8.145633e-04
8.160831e-04
8.046443e-04
3.043856e-04
8.237771e-04
8.487541e-04
8.322423e-04
8.249969e-04
8.210673e-04
8.172398e-04
8.129978e-04
8.089881e-04
8.053689e-04
8.030556e-04
8.032042e-04
8.091611e-04
8.108853e-04
8.176981e-04
8.186459e-04
8.205735e-04
8.094231e-04
3.266603e-04
8.271295e-04
8.518976e-04
8.355691e-04
8.293545e-04
8.261908e-04
8.228218e-04
8.193691e-04
8.155121e-04
8.118921e-04
8.091366e-04
8.091918e-04
8.150305e-04
8.177655e-04
8.240189e-04
8.234194e-04
8.261170e-04
8.162025e-04
3.329296e-04
8.281265e-04
8.556358e-04
8.395016e-04
8.329913e-04
8.329302e-04
8.310538e-04
8.286148e-04
8.254862e-04
8.219774e-04
8.191886e-04
8.189687e-04
8.252470e-04
8.278801e-04
8.313216e-04
8.256514e-04
8.293709e-04
8.255061e-04
3.354730e-04
8.252564e-04
8.566330e-04
8.391341e-04
8.321238e-04
8.332254e-04
8.346182e-04
8.350874e-04
8.346899e-04
8.332005e-04
8.307580e-04
8.302736e-04
8.368047e-04
8.357715e-04
8.323131e-04
8.272785e-04
8.309478e-04
8.299266e-04
3.292942e-04
8.182970e-04
8.504413e-04
8.338514e-04
8.276303e-04
8.283344e-04
8.298980e-04
8.309933e-04
8.306665e-04
8.300860e-04
8.286027e-04
8.291117e-04
8.352222e-04
8.329164e-04
8.291868e-04
8.244030e-04
8.265082e-04
8.252481e-04
3.353666e-04
8.186063e-04
8.392271e-04
8.285865e-04
8.236378e-04
8.239947e-04
8.237336e-04
8.229903e-04
8.206663e-04
8.181132e-04
8.156128e-04
8.159997e-04
8.235514e-04
8.246105e-04
8.238231e-04
8.193398e-04
8.199049e-04
8.223802e-04
4.681877e-04
8.322473e-04
8.547920e-04
8.420768e-04
8.365555e-04
8.340467e-04
8.307382e-04
8.268805e-04
8.231322e-04
8.196984e-04
8.173965e-04
8.183072e-04
8.247442e-04
8.252957e-04
8.313098e-04
8.306850e-04
8.334189e-04
8.321307e-04
3.942199e-04
7.408140e-04
8.472243e-04
8.327935e-04
8.253946e-04
8.211845e-04
8.169664e-04
8.129184e-04
8.095528e-04
8.061568e-04
8.029596e-04
8.030383e-04
8.111121e-04
8.111433e-04
8.171344e-04
8.164511e-04
8.168883e-04
8.164015e-04
3.392811e-04
7.105750e-04
8.405036e-04
8.268913e-04
8.197769e-04
8.153448e-04
8.109175e-04
8.067585e-04
8.034251e-04
7.999741e-04
7.968582e-04
7.974354e-04
8.055896e-04
8.051493e-04
8.115317e-04
8.102010e-04
8.092382e-04
8.075975e-04
3.176008e-04
7.197651e-04
8.380257e-04
8.263918e-04
8.207444e-04
8.168109e-04
8.124254e-04
8.081420e-04
8.042119e-04
8.013322e-04
7.986132e-04
7.993663e-04
8.074272e-04
8.064988e-04
8.124858e-04
8.110091e-04
8.097047e-04
8.096507e-04
3.222801e-04
7.353540e-04
8.374503e-04
8.279386e-04
8.233873e-04
8.199547e-04
8.160102e-04
8.117753e-04
8.078045e-04
8.042472e-04
8.021945e-04
8.032477e-04
8.103202e-04
8.095139e-04
8.150272e-04
8.134013e-04
8.125145e-04
8.129691e-04
3.667025e-04
7.738438e-04
8.432116e-04
8.355065e-04
8.304870e-04
8.272642e-04
8.238092e-04
8.202109e-04
8.159564e-04
8.115526e-04
8.082991e-04
8.090806e-04
8.157872e-04
8.152466e-04
8.193503e-04
8.175966e-04
8.176576e-04
8.193577e-04
5.783500e-04
8.169177e-04
8.625164e-04
8.466161e-04
8.425030e-04
8.395182e-04
8.372514e-04
8.339905e-04
8.284603e-04
8.201269e-04
8.105904e-04
8.070120e-04
8.158957e-04
8.165074e-04
8.195853e-04
8.113680e-04
8.177254e-04
8.180649e-04
4.372083e-04
7.406069e-04
8.568927e-04
8.271642e-04
8.050433e-04
7.990384e-04
7.933474e-04
7.825409e-04
7.624330e-04
7.317596e-04
7.009721e-04
6.733426e-04
6.806323e-04
6.997926e-04
7.123351e-04
7.078689e-04
6.987692e-04
6.581719e-04
-4.305935e-04
3.867857e-04
5.311617e-04
3.306295e-04
2.694270e-04
2.520717e-04
2.377543e-04
2.208386e-04
2.223194e-04
2.553170e-04
2.443624e-04
2.232879e-04
2.142489e-04
2.336647e-04
2.496253e-04
2.693693e-04
2.421717e-04
2.424497e-04
-3.462180e-04
3.739266e-04
5.598046e-04
5.394192e-04
5.451530e-04
5.511121e-04
5.566650e-04
5.620457e-04
5.673119e-04
5.724590e-04
5.776199e-04
5.827263e-04
5.878903e-04
5.929096e-04
5.977282e-04
6.020737e-04
6.062476e-04
6.109126e-04
6.159037e-04
6.213752e-04
6.270692e-04
6.329582e-04
6.388704e-04
6.444871e-04
6.498881e-04
6.553480e-04
6.609164e-04
6.662255e-04
6.713880e-04
6.768813e-04
6.832935e-04
6.903893e-04
6.962406e-04
7.005399e-04
7.049424e-04
7.092775e-04
7.131161e-04
7.162676e-04
7.188794e-04
7.204965e-04
7.218901e-04
7.236206e-04
7.252132e-04
7.271908e-04
7.296173e-04
7.319123e-04
7.344429e-04
7.377854e-04
7.416926e-04
7.456899e-04
7.494966e-04
7.525459e-04
7.550800e-04
7.589955e-04
7.633991e-04
7.690359e-04
7.759134e-04
7.829040e-04
7.900419e-04
7.972812e-04
8.041822e-04
8.100781e-04
8.160759e-04
8.220724e-04
8.275103e-04
8.329147e-04
8.394451e-04
8.454554e-04
8.507057e-04
8.524365e-04
8.549895e-04
8.577605e-04
8.600355e-04
8.618133e-04
8.633251e-04
8.646627e-04
8.669162e-04
8.664638e-04
8.639745e-04
8.601756e-04
8.533696e-04
8.434734e-04
8.330319e-04
8.213743e-04
8.075561e-04
7.913829e-04
7.755582e-04
7.593237e-04
7.422025e-04
7.223294e-04
7.000134e-04
6.774373e-04
6.540004e-04
6.302034e-04
6.071715e-04
5.841629e-04
5.612395e-04
5.421376e-04
5.241529e-04
5.019582e-04
4.807111e-04
4.653712e-04
4.517123e-04
4.402982e-04
4.281743e-04
4.169135e-04
4.071058e-04
3.973393e-04
3.894495e-04
3.853062e-04
3.860702e-04
3.932067e-04
4.028999e-04
4.143315e-04
4.249359e-04
4.355205e-04
4.457129e-04
4.555147e-04
4.614833e-04
4.657085e-04
4.708649e-04
4.818637e-04
4.950112e-04
5.079649e-04
5.217050e-04
5.352433e-04
5.502944e-04
5.627160e-04
5.777279e-04
5.961297e-04
6.129413e-04
6.299554e-04
6.492686e-04
6.659977e-04
6.822949e-04
7.032293e-04
7.234377e-04
7.413517e-04
7.585565e-04
7.745398e-04
7.873879e-04
7.990083e-04
8.115613e-04
8.248461e-04
8.375969e-04
8.492705e-04
8.583569e-04
8.684535e-04
8.789562e-04
8.906570e-04
9.024134e-04
9.134511e-04
9.221940e-04
9.290686e-04
9.347223e-04
9.346626e-04
9.327608e-04
9.306414e-04
9.273672e-04
9.227219e-04
9.177034e-04
9.129383e-04
9.092933e-04
9.054455e-04
8.992424e-04
8.917046e-04
8.848161e-04
8.809348e-04
8.775651e-04
8.765715e-04
8.782477e-04
8.817598e-04
8.953683e-04
9.461204e-04
9.984066e-04
9.842468e-04
9.223044e-04
9.501893e-04
1.002002e-03
1.183544e-03
3.693702e-04
3.417810e-04
3.782625e-04
4.038443e-04
4.105566e-04
4.168644e-04
4.237927e-04
4.314307e-04
4.391836e-04
4.472859e-04
4.553858e-04
4.631942e-04
4.708904e-04
4.785148e-04
4.857840e-04
4.930764e-04
5.000719e-04
5.070683e-04
5.140362e-04
5.207550e-04
5.268837e-04
5.329980e-04
5.388745e-04
5.448566e-04
5.509103e-04
5.569559e-04
5.639558e-04
5.710566e-04
5.783986e-04
5.859860e-04
5.943568e-04
6.028836e-04
6.111657e-04
6.193973e-04
6.275394e-04
6.356732e-04
6.440561e-04
6.523912e-04
6.612282e-04
6.705921e-04
6.806092e-04
6.912345e-04
7.029775e-04
7.152203e-04
7.275919e-04
7.403746e-04
7.523516e-04
7.646880e-04
7.773160e-04
7.908594e-04
8.054300e-04
8.208382e-04
8.366340e-04
8.516687e-04
8.672992e-04
8.829839e-04
8.977662e-04
9.115131e-04
9.245880e-04
9.374718e-04
9.512791e-04
9.653568e-04
9.805992e-04
9.968399e-04
1.012603e-03
1.025749e-03
1.039222e-03
1.054283e-03
1.069495e-03
1.084465e-03
1.100303e-03
1.116974e-03
1.132887e-03
1.148673e-03
1.164213e-03
1.179594e-03
1.195294e-03
1.209312e-03
1.222558e-03
1.234612e-03
1.244966e-03
1.254142e-03
1.259536e-03
1.263514e-03
1.266317e-03
1.268584e-03
1.268543e-03
1.269979e-03
1.269618e-03
1.265194e-03
1.258623e-03
1.254473e-03
1.251785e-03
1.251578e-03
1.251484e-03
1.252229e-03
1.251298e-03
1.246732e-03
1.237344e-03
1.225018e-03
1.212289e-03
1.200479e-03
1.186739e-03
1.171728e-03
1.159035e-03
1.149947e-03
1.140735e-03
1.132687e-03
1.126810e-03
1.122907e-03
1.122039e-03
1.126731e-03
1.133121e-03
1.142173e-03
1.153299e-03
1.162166e-03
1.170757e-03
1.180112e-03
1.189695e-03
1.198636e-03
1.203554e-03
1.206363e-03
1.208420e-03
1.208583e-03
1.205501e-03
1.201759e-03
1.198463e-03
1.193355e-03
1.188634e-03
1.182844e-03
1.176520e-03
1.171393e-03
1.171510e-03
1.173165e-03
1.175040e-03
1.177931e-03
1.179876e-03
1.180371e-03
1.177291e-03
1.171310e-03
1.163024e-03
1.159833e-03
1.156104e-03
1.151411e-03
1.145301e-03
1.136543e-03
1.127954e-03
1.120236e-03
1.111744e-03
1.104687e-03
1.095301e-03
1.082485e-03
1.069119e-03
1.056189e-03
1.045415e-03
1.035576e-03
1.026007e-03
1.016953e-03
1.008069e-03
1.000366e-03
9.939404e-04
9.877790e-04
9.822682e-04
9.772082e-04
9.720108e-04
9.658647e-04
9.588186e-04
9.522912e-04
9.463680e-04
9.403327e-04
9.358705e-04
9.362778e-04
9.473887e-04
1.008259e-03
1.141629e-03
1.189942e-03
1.553529e-03
1.912315e-03
2.117103e-03
1.907674e-03
5.812294e-04
4.016911e-04
4.675041e-04
4.766032e-04
4.807399e-04
4.883549e-04
4.965196e-04
5.045447e-04
5.123823e-04
5.203276e-04
5.287828e-04
5.378034e-04
5.464777e-04
5.551857e-04
5.640653e-04
5.727743e-04
5.815922e-04
5.903630e-04
5.993900e-04
6.085175e-04
6.176149e-04
6.267846e-04
6.363307e-04
6.465210e-04
6.569227e-04
6.676616e-04
6.778972e-04
6.886849e-04
7.010995e-04
7.143072e-04
7.280172e-04
7.416990e-04
7.551126e-04
7.682570e-04
7.815580e-04
7.949636e-04
8.083670e-04
8.219323e-04
8.360651e-04
8.507715e-04
8.657795e-04
8.816596e-04
8.991315e-04
9.173281e-04
9.366526e-04
9.561772e-04
9.752907e-04
9.944903e-04
1.015326e-03
1.038811e-03
1.065766e-03
1.092969e-03
1.119477e-03
1.144214e-03
1.169923e-03
1.196674e-03
1.223335e-03
1.250464e-03
1.277608e-03
1.303291e-03
1.328636e-03
1.354326e-03
1.379317e-03
1.403524e-03
1.428990e-03
1.454892e-03
1.480346e-03
1.505648e-03
1.531144e-03
1.557185e-03
1.583124e-03
1.608336e-03
1.633241e-03
1.658282e-03
1.684702e-03
1.711717e-03
1.736855e-03
1.760041e-03
1.782861e-03
1.804659e-03
1.825534e-03
1.846159e-03
1.868366e-03
1.889970e-03
1.912115e-03
1.937105e-03
1.960296e-03
1.982070e-03
2.002589e-03
2.020977e-03
2.040062e-03
2.058710e-03
2.076111e-03
2.091346e-03
2.105907e-03
2.118704e-03
2.131301e-03
2.140951e-03
2.144534e-03
2.143647e-03
2.138048e-03
2.133868e-03
2.129065e-03
2.123813e-03
2.118516e-03
2.110776e-03
2.103900e-03
2.101547e-03
2.103158e-03
2.108987e-03
2.116025e-03
2.123849e-03
2.131722e-03
2.142824e-03
2.158645e-03
2.167946e-03
2.174788e-03
2.180350e-03
2.187944e-03
2.198731e-03
2.205115e-03
2.209798e-03
2.212229e-03
2.211036e-03
2.210594e-03
2.207465e-03
2.199612e-03
2.185107e-03
2.170624e-03
2.149956e-03
2.130535e-03
2.110156e-03
2.087567e-03
2.059978e-03
2.032825e-03
2.010451e-03
1.995796e-03
1.980593e-03
1.962556e-03
1.948502e-03
1.935460e-03
1.919645e-03
1.902481e-03
1.888923e-03
1.876650e-03
1.864994e-03
1.853694e-03
1.845952e-03
1.839374e-03
1.833863e-03
1.829796e-03
1.824462e-03
1.818023e-03
1.812111e-03
1.805603e-03
1.796264e-03
1.784405e-03
1.769062e-03
1.751965e-03
1.735161e-03
1.717564e-03
1.699214e-03
1.678050e-03
1.656545e-03
1.636001e-03
1.616792e-03
1.596992e-03
1.577367e-03
1.558619e-03
1.541974e-03
1.527956e-03
1.516520e-03
1.529280e-03
1.628436e-03
1.785426e-03
1.854686e-03
2.433292e-03
3.000620e-03
3.104683e-03
2.867710e-03
5.516704e-04
4.360342e-04
4.864517e-04
4.957868e-04
5.017153e-04
5.093102e-04
5.174187e-04
5.254918e-04
5.334979e-04
5.415648e-04
5.498004e-04
5.584182e-04
5.677052e-04
5.773935e-04
5.878070e-04
5.989646e-04
6.108793e-04
6.234271e-04
6.355676e-04
6.481862e-04
6.612084e-04
6.748851e-04
6.889888e-04
7.032512e-04
7.177115e-04
7.323680e-04
7.472353e-04
7.620634e-04
7.776445e-04
7.936277e-04
8.100055e-04
8.267329e-04
8.441002e-04
8.615088e-04
8.783109e-04
8.949921e-04
9.125115e-04
9.299943e-04
9.478219e-04
9.656494e-04
9.851675e-04
1.005767e-03
1.027072e-03
1.051545e-03
1.077980e-03
1.104797e-03
1.133914e-03
1.164798e-03
1.196550e-03
1.228361e-03
1.259579e-03
1.289263e-03
1.318834e-03
1.348943e-03
1.380222e-03
1.412050e-03
1.444437e-03
1.477960e-03
1.511133e-03
1.544526e-03
1.577612e-03
1.611305e-03
1.645033e-03
1.677595e-03
1.709818e-03
1.743166e-03
1.776382e-03
1.808432e-03
1.841046e-03
1.876220e-03
1.911056e-03
1.943199e-03
1.975107e-03
2.009316e-03
2.044339e-03
2.079045e-03
2.111549e-03
2.140694e-03
2.167601e-03
2.196288e-03
2.225276e-03
2.255266e-03
2.288132e-03
2.322191e-03
2.357569e-03
2.394183e-03
2.429863e-03
2.463515e-03
2.501783e-03
2.541298e-03
2.583844e-03
2.624855e-03
2.660054e-03
2.689099e-03
2.715127e-03
2.737735e-03
2.762078e-03
2.788778e-03
2.812164e-03
2.833902e-03
2.849797e-03
2.861042e-03
2.870086e-03
2.882092e-03
2.893694e-03
2.902606e-03
2.912148e-03
2.925017e-03
2.938155e-03
2.953166e-03
2.970618e-03
2.988399e-03
3.009566e-03
3.031464e-03
3.053398e-03
3.073647e-03
3.092237e-03
3.114348e-03
3.137415e-03
3.157905e-03
3.173589e-03
3.186155e-03
3.195613e-03
3.207392e-03
3.218673e-03
3.225454e-03
3.230790e-03
3.228692e-03
3.219427e-03
3.207870e-03
3.192290e-03
3.173618e-03
3.153947e-03
3.136894e-03
3.117228e-03
3.098258e-03
3.078692e-03
3.060724e-03
3.041062e-03
3.018199e-03
2.989325e-03
2.955559e-03
2.917025e-03
2.878124e-03
2.836979e-03
2.799114e-03
2.765037e-03
2.735856e-03
2.714821e-03
2.702820e-03
2.691707e-03
2.682993e-03
2.676378e-03
2.668669e-03
2.661266e-03
2.653048e-03
2.642378e-03
2.631614e-03
2.617823e-03
2.603597e-03
2.590932e-03
2.577834e-03
2.559470e-03
2.535418e-03
2.508475e-03
2.477692e-03
2.447884e-03
2.418781e-03
2.390528e-03
2.360116e-03
2.327820e-03
2.296254e-03
2.293149e-03
2.398695e-03
2.558811e-03
2.622046e-03
3.257593e-03
3.727576e-03
3.688770e-03
3.503623e-03
5.347867e-04
4.466912e-04
4.967133e-04
5.075239e-04
5.122458e-04
5.195350e-04
5.276217e-04
5.360534e-04
5.449828e-04
5.551404e-04
5.657622e-04
5.767592e-04
5.884855e-04
6.005944e-04
6.130453e-04
6.257038e-04
6.381147e-04
6.508287e-04
6.640488e-04
6.785138e-04
6.930405e-04
7.078514e-04
7.232520e-04
7.390829e-04
7.548409e-04
7.708978e-04
7.869067e-04
8.033048e-04
8.199213e-04
8.371211e-04
8.543923e-04
8.721803e-04
8.897522e-04
9.068017e-04
9.250200e-04
9.441553e-04
9.636047e-04
9.837186e-04
1.006185e-03
1.030012e-03
1.054248e-03
1.079821e-03
1.107898e-03
1.139110e-03
1.170890e-03
1.202717e-03
1.236687e-03
1.270469e-03
1.303574e-03
1.336162e-03
1.368735e-03
1.400828e-03
1.434404e-03
1.468433e-03
1.503223e-03
1.538357e-03
1.574279e-03
1.611155e-03
1.646873e-03
1.681806e-03
1.717422e-03
1.753771e-03
1.789818e-03
1.825506e-03
1.862268e-03
1.902944e-03
1.941358e-03
1.977564e-03
2.014021e-03
2.049433e-03
2.084095e-03
2.120311e-03
2.154293e-03
2.187686e-03
2.222930e-03
2.256741e-03
2.289394e-03
2.323087e-03
2.355744e-03
2.388976e-03
2.424373e-03
2.461154e-03
2.499443e-03
2.540605e-03
2.586393e-03
2.632055e-03
2.682402e-03
2.733647e-03
2.788364e-03
2.843567e-03
2.894204e-03
2.939164e-03
2.980745e-03
3.011777e-03
3.038491e-03
3.065625e-03
3.096365e-03
3.125890e-03
3.151343e-03
3.175282e-03
3.194003e-03
3.210122e-03
3.228901e-03
3.246138e-03
3.262874e-03
3.276739e-03
3.291769e-03
3.311668e-03
3.330366e-03
3.349728e-03
3.374354e-03
3.405220e-03
3.438832e-03
3.469565e-03
3.496484e-03
3.523735e-03
3.550174e-03
3.574404e-03
3.601072e-03
3.626901e-03
3.652747e-03
3.677946e-03
3.699767e-03
3.715247e-03
3.726882e-03
3.735576e-03
3.740209e-03
3.744024e-03
3.748890e-03
3.752326e-03
3.752700e-03
3.749506e-03
3.741364e-03
3.726218e-03
3.706388e-03
3.685228e-03
3.661346e-03
3.634301e-03
3.609597e-03
3.579396e-03
3.545993e-03
3.511040e-03
3.476880e-03
3.439373e-03
3.404316e-03
3.370841e-03
3.336630e-03
3.305692e-03
3.279943e-03
3.259752e-03
3.243792e-03
3.230943e-03
3.217917e-03
3.203465e-03
3.189572e-03
3.176456e-03
3.162287e-03
3.147293e-03
3.131865e-03
3.119027e-03
3.106040e-03
3.088372e-03
3.064011e-03
3.033100e-03
2.996357e-03
2.953244e-03
2.912330e-03
2.871120e-03
2.834790e-03
2.801317e-03
2.763935e-03
2.726295e-03
2.720535e-03
2.825059e-03
3.022253e-03
3.088988e-03
3.609824e-03
4.010756e-03
3.940586e-03
3.831210e-03
5.180276e-04
4.562292e-04
5.107629e-04
5.199235e-04
5.259181e-04
5.338503e-04
5.423817e-04
5.518537e-04
5.618995e-04
5.725881e-04
5.840685e-04
5.962024e-04
6.088660e-04
6.219382e-04
6.352813e-04
6.485454e-04
6.614362e-04
6.751938e-04
6.894706e-04
7.042509e-04
7.192540e-04
7.345329e-04
7.499120e-04
7.653664e-04
7.808337e-04
7.964453e-04
8.128208e-04
8.293858e-04
8.463382e-04
8.637558e-04
8.823396e-04
9.011276e-04
9.197140e-04
9.402504e-04
9.620770e-04
9.858069e-04
1.009874e-03
1.034043e-03
1.059871e-03
1.086992e-03
1.116288e-03
1.146268e-03
1.178037e-03
1.212622e-03
1.246675e-03
1.280855e-03
1.314472e-03
1.348255e-03
1.382441e-03
1.416822e-03
1.451781e-03
1.487176e-03
1.522761e-03
1.558799e-03
1.594356e-03
1.630311e-03
1.667503e-03
1.706191e-03
1.743961e-03
1.780394e-03
1.818113e-03
1.855870e-03
1.895576e-03
1.936627e-03
1.976106e-03
2.016180e-03
2.054642e-03
2.092207e-03
2.127600e-03
2.159871e-03
2.193330e-03
2.230978e-03
2.269895e-03
2.309208e-03
2.349722e-03
2.389988e-03
2.432123e-03
2.475117e-03
2.518480e-03
2.561103e-03
2.604792e-03
2.649054e-03
2.694897e-03
2.744542e-03
2.795483e-03
2.847301e-03
2.897809e-03
2.956248e-03
3.014777e-03
3.068358e-03
3.120240e-03
3.161602e-03
3.193780e-03
3.219498e-03
3.242343e-03
3.269079e-03
3.297927e-03
3.325828e-03
3.350961e-03
3.373877e-03
3.396936e-03
3.421762e-03
3.447413e-03
3.473675e-03
3.498187e-03
3.521605e-03
3.542786e-03
3.565124e-03
3.589919e-03
3.618645e-03
3.649180e-03
3.684443e-03
3.720102e-03
3.751339e-03
3.782701e-03
3.813999e-03
3.843619e-03
3.872707e-03
3.903404e-03
3.937722e-03
3.973393e-03
4.004159e-03
4.026547e-03
4.045726e-03
4.062552e-03
4.073377e-03
4.078399e-03
4.077829e-03
4.083252e-03
4.090805e-03
4.097991e-03
4.101591e-03
4.097960e-03
4.087293e-03
4.072219e-03
4.049871e-03
4.025292e-03
3.997295e-03
3.965502e-03
3.931026e-03
3.899418e-03
3.867271e-03
3.837226e-03
3.805597e-03
3.771000e-03
3.736650e-03
3.706702e-03
3.680676e-03
3.656306e-03
3.633044e-03
3.613902e-03
3.593659e-03
3.576125e-03
3.556742e-03
3.535562e-03
3.514800e-03
3.493246e-03
3.472011e-03
3.450371e-03
3.431227e-03
3.416050e-03
3.396483e-03
3.372914e-03
3.345385e-03
3.315263e-03
3.279344e-03
3.236709e-03
3.189621e-03
3.141135e-03
3.095317e-03
3.047124e-03
3.000067e-03
2.988092e-03
3.097743e-03
3.326203e-03
3.380052e-03
3.810049e-03
4.163423e-03
4.076533e-03
4.011259e-03
4.909401e-04
4.622310e-04
5.256774e-04
5.396579e-04
5.464927e-04
5.554442e-04
5.647450e-04
5.747026e-04
5.856035e-04
5.974247e-04
6.096130e-04
6.222443e-04
6.348082e-04
6.473335e-04
6.599361e-04
6.730831e-04
6.864287e-04
6.995459e-04
7.135839e-04
7.281153e-04
7.429937e-04
7.584114e-04
7.743584e-04
7.906942e-04
8.075260e-04
8.247579e-04
8.429798e-04
8.612321e-04
8.796114e-04
8.985870e-04
9.177738e-04
9.375887e-04
9.607218e-04
9.843149e-04
1.007714e-03
1.032291e-03
1.058698e-03
1.086184e-03
1.114795e-03
1.145522e-03
1.177953e-03
1.210984e-03
1.244459e-03
1.277997e-03
1.311794e-03
1.344745e-03
1.378148e-03
1.413388e-03
1.449454e-03
1.485145e-03
1.520868e-03
1.557125e-03
1.592309e-03
1.629992e-03
1.667589e-03
1.705420e-03
1.744375e-03
1.783322e-03
1.823145e-03
1.862539e-03
1.903305e-03
1.944951e-03
1.986602e-03
2.029092e-03
2.070561e-03
2.110426e-03
2.150937e-03
2.189870e-03
2.228512e-03
2.267659e-03
2.307555e-03
2.347165e-03
2.386335e-03
2.426704e-03
2.468941e-03
2.512495e-03
2.558265e-03
2.608933e-03
2.662213e-03
2.716081e-03
2.765323e-03
2.810690e-03
2.855778e-03
2.900977e-03
2.947887e-03
2.997823e-03
3.049092e-03
3.104222e-03
3.162504e-03
3.220788e-03
3.272726e-03
3.317373e-03
3.352892e-03
3.382067e-03
3.409807e-03
3.438480e-03
3.469841e-03
3.500968e-03
3.530225e-03
3.556781e-03
3.581060e-03
3.608701e-03
3.639721e-03
3.672540e-03
3.705593e-03
3.735018e-03
3.763003e-03
3.792458e-03
3.828089e-03
3.865931e-03
3.904266e-03
3.942082e-03
3.977119e-03
4.010296e-03
4.043204e-03
4.074288e-03
4.106591e-03
4.138183e-03
4.171339e-03
4.202680e-03
4.232535e-03
4.264176e-03
4.293063e-03
4.315318e-03
4.333598e-03
4.345157e-03
4.351161e-03
4.352350e-03
4.354805e-03
4.360549e-03
4.369449e-03
4.372690e-03
4.367086e-03
4.357273e-03
4.340788e-03
4.318276e-03
4.292064e-03
4.265662e-03
4.238638e-03
4.209075e-03
4.177680e-03
4.146465e-03
4.114292e-03
4.087794e-03
4.059901e-03
4.033104e-03
4.005107e-03
3.977248e-03
3.953935e-03
3.934240e-03
3.918943e-03
3.899487e-03
3.877136e-03
3.855322e-03
3.834362e-03
3.812829e-03
3.791943e-03
3.769118e-03
3.742604e-03
3.714332e-03
3.689322e-03
3.662990e-03
3.635556e-03
3.606351e-03
3.575807e-03
3.543491e-03
3.506037e-03
3.467466e-03
3.423024e-03
3.373673e-03
3.322662e-03
3.271790e-03
3.256505e-03
3.369521e-03
3.589588e-03
3.651274e-03
3.994638e-03
4.281998e-03
4.170091e-03
4.138636e-03
4.366951e-04
4.621733e-04
5.512276e-04
5.617420e-04
5.698941e-04
5.795163e-04
5.892971e-04
6.000741e-04
6.112260e-04
6.224852e-04
6.343472e-04
6.463182e-04
6.585233e-04
6.708953e-04
6.843248e-04
6.983424e-04
7.131338e-04
7.284035e-04
7.435942e-04
7.586027e-04
7.741043e-04
7.897919e-04
8.054893e-04
8.229854e-04
8.424849e-04
8.622410e-04
8.816061e-04
9.006382e-04
9.219154e-04
9.430395e-04
9.634947e-04
9.857144e-04
1.007783e-03
1.030872e-03
1.056572e-03
1.084174e-03
1.112130e-03
1.141305e-03
1.171831e-03
1.202819e-03
1.235290e-03
1.268806e-03
1.301989e-03
1.334469e-03
1.366372e-03
1.399989e-03
1.434988e-03
1.470084e-03
1.505773e-03
1.542884e-03
1.581541e-03
1.619377e-03
1.657319e-03
1.694636e-03
1.732769e-03
1.770122e-03
1.809230e-03
1.849042e-03
1.889242e-03
1.934742e-03
1.979487e-03
2.024842e-03
2.071196e-03
2.116654e-03
2.161610e-03
2.205358e-03
2.246914e-03
2.286260e-03
2.326871e-03
2.367378e-03
2.407211e-03
2.446075e-03
2.487251e-03
2.529039e-03
2.570957e-03
2.617781e-03
2.662882e-03
2.710478e-03
2.762347e-03
2.816481e-03
2.871475e-03
2.924090e-03
2.975823e-03
3.026287e-03
3.074361e-03
3.123927e-03
3.176584e-03
3.232922e-03
3.292642e-03
3.350211e-03
3.400020e-03
3.440800e-03
3.477441e-03
3.509312e-03
3.540072e-03
3.573050e-03
3.610164e-03
3.646388e-03
3.680643e-03
3.712590e-03
3.741735e-03
3.774788e-03
3.808637e-03
3.845978e-03
3.882547e-03
3.917358e-03
3.947618e-03
3.979280e-03
4.014963e-03
4.054550e-03
4.095145e-03
4.133427e-03
4.167945e-03
4.200739e-03
4.234330e-03
4.266458e-03
4.296074e-03
4.324755e-03
4.354883e-03
4.385022e-03
4.418782e-03
4.448572e-03
4.476022e-03
4.501987e-03
4.522755e-03
4.538983e-03
4.551308e-03
4.561596e-03
4.569412e-03
4.575959e-03
4.578289e-03
4.576289e-03
4.567967e-03
4.554694e-03
4.539996e-03
4.520218e-03
4.499359e-03
4.477415e-03
4.454781e-03
4.430614e-03
4.407943e-03
4.380413e-03
4.355119e-03
4.327317e-03
4.296360e-03
4.268620e-03
4.244754e-03
4.221382e-03
4.200485e-03
4.183847e-03
4.167603e-03
4.150948e-03
4.133131e-03
4.113342e-03
4.090426e-03
4.068424e-03
4.046949e-03
4.026079e-03
4.004824e-03
3.980917e-03
3.952362e-03
3.923125e-03
3.895204e-03
3.864672e-03
3.831159e-03
3.795753e-03
3.758334e-03
3.719096e-03
3.674934e-03
3.628385e-03
3.582216e-03
3.535225e-03
3.519736e-03
3.620153e-03
3.842210e-03
3.919761e-03
4.158660e-03
4.363521e-03
4.243091e-03
4.233967e-03
3.485764e-04
4.618957e-04
5.703127e-04
5.842829e-04
5.922376e-04
6.016990e-04
6.117685e-04
6.229945e-04
6.343303e-04
6.459539e-04
6.581445e-04
6.708352e-04
6.836745e-04
6.970872e-04
7.106672e-04
7.247916e-04
7.398575e-04
7.551989e-04
7.707576e-04
7.876491e-04
8.047801e-04
8.223748e-04
8.403721e-04
8.586863e-04
8.782721e-04
8.985437e-04
9.187888e-04
9.397009e-04
9.606340e-04
9.816975e-04
1.002722e-03
1.027300e-03
1.053266e-03
1.079997e-03
1.107397e-03
1.134997e-03
1.163957e-03
1.193506e-03
1.223412e-03
1.254092e-03
1.285523e-03
1.316128e-03
1.347544e-03
1.380605e-03
1.414130e-03
1.447829e-03
1.484249e-03
1.521035e-03
1.558242e-03
1.595064e-03
1.633242e-03
1.672088e-03
1.711042e-03
1.750242e-03
1.789332e-03
1.827748e-03
1.866922e-03
1.911171e-03
1.960416e-03
2.011725e-03
2.060573e-03
2.109002e-03
2.154985e-03
2.198336e-03
2.239545e-03
2.282081e-03
2.323779e-03
2.364006e-03
2.402099e-03
2.439541e-03
2.479586e-03
2.520603e-03
2.560239e-03
2.602135e-03
2.646823e-03
2.693059e-03
2.739252e-03
2.786181e-03
2.835506e-03
2.888925e-03
2.943984e-03
3.001385e-03
3.059334e-03
3.115736e-03
3.167446e-03
3.217970e-03
3.270814e-03
3.325020e-03
3.376876e-03
3.425605e-03
3.470822e-03
3.515596e-03
3.556569e-03
3.596193e-03
3.631079e-03
3.665887e-03
3.703598e-03
3.743186e-03
3.784147e-03
3.824146e-03
3.861102e-03
3.898513e-03
3.931883e-03
3.967612e-03
4.004682e-03
4.036605e-03
4.068818e-03
4.102067e-03
4.135844e-03
4.169702e-03
4.203496e-03
4.235064e-03
4.264663e-03
4.295033e-03
4.327314e-03
4.359412e-03
4.389681e-03
4.417512e-03
4.446617e-03
4.477099e-03
4.510336e-03
4.542103e-03
4.572189e-03
4.598521e-03
4.621359e-03
4.639062e-03
4.651114e-03
4.658810e-03
4.668459e-03
4.680923e-03
4.691726e-03
4.699472e-03
4.700156e-03
4.692118e-03
4.686334e-03
4.677334e-03
4.666665e-03
4.651438e-03
4.632704e-03
4.615560e-03
4.595779e-03
4.574820e-03
4.548689e-03
4.522410e-03
4.497970e-03
4.474382e-03
4.447157e-03
4.421390e-03
4.400769e-03
4.381349e-03
4.364169e-03
4.351074e-03
4.339164e-03
4.324210e-03
4.304815e-03
4.283082e-03
4.263274e-03
4.243538e-03
4.224105e-03
4.205181e-03
4.183416e-03
4.157286e-03
4.130800e-03
4.102444e-03
4.074358e-03
4.043454e-03
4.009544e-03
3.970447e-03
3.928475e-03
3.882656e-03
3.834188e-03
3.787908e-03
3.766567e-03
3.865320e-03
4.100293e-03
4.145966e-03
4.287887e-03
4.416391e-03
4.282567e-03
4.309496e-03
2.704467e-04
4.444117e-04
5.814027e-04
5.916866e-04
6.008942e-04
6.113326e-04
6.217466e-04
6.327135e-04
6.440089e-04
6.559323e-04
6.683974e-04
6.815355e-04
6.950485e-04
7.080037e-04
7.220475e-04
7.376550e-04
7.540377e-04
7.703721e-04
7.866795e-04
8.032356e-04
8.205169e-04
8.384391e-04
8.569595e-04
8.765671e-04
8.965551e-04
9.167527e-04
9.378162e-04
9.596996e-04
9.823444e-04
1.007635e-03
1.033087e-03
1.059902e-03
1.088097e-03
1.116546e-03
1.144221e-03
1.171753e-03
1.199310e-03
1.227922e-03
1.257041e-03
1.286273e-03
1.316527e-03
1.348834e-03
1.383019e-03
1.419454e-03
1.456410e-03
1.494162e-03
1.532697e-03
1.569877e-03
1.605236e-03
1.640623e-03
1.677118e-03
1.716951e-03
1.758505e-03
1.801745e-03
1.846178e-03
1.889775e-03
1.935373e-03
1.982477e-03
2.028709e-03
2.075489e-03
2.123525e-03
2.170008e-03
2.214142e-03
2.255430e-03
2.295094e-03
2.334248e-03
2.372543e-03
2.410581e-03
2.449156e-03
2.486297e-03
2.526224e-03
2.567084e-03
2.610111e-03
2.652869e-03
2.697821e-03
2.743855e-03
2.789111e-03
2.835617e-03
2.884031e-03
2.936043e-03