/*--------------------------------*- C++ -*----------------------------------*\
| =========                 |                                                 |
| \\      /  F ield         | OpenFOAM: The Open Source CFD Toolbox           |
|  \\    /   O peration     | Version:  v2406                                 |
|   \\  /    A nd           | Website:  www.openfoam.com                      |
|    \\/     M anipulation  |                                                 |
\*---------------------------------------------------------------------------*/
FoamFile
{
    version     2.0;
    format      ascii;
    class       volScalarField;
    location    "predicted";
    object      p;
}
// * * * * * * * * * * * * * * * * * * * * * * * * * * * * * * * * * * * * * //

dimensions      [0 2 -2 0 0 0 0];

internalField   nonuniform List<scalar>
49181
(
-5.786912e+00
-5.724634e+00
-5.871205e+00
-6.794327e+00
-7.026319e+00
-7.133669e+00
-7.216758e+00
-7.293949e+00
-7.366743e+00
-7.428228e+00
-7.459332e+00
-7.468427e+00
-7.444701e+00
-7.397764e+00
-7.265146e+00
-7.080395e+00
-7.102629e+00
-6.529941e+00
-5.629421e+00
-5.536224e+00
-5.799617e+00
-6.220495e+00
-6.416277e+00
-6.469164e+00
-6.511036e+00
-6.551200e+00
-6.553696e+00
-6.533797e+00
-6.513281e+00
-6.519477e+00
-6.500706e+00
-6.475438e+00
-6.440908e+00
-6.373368e+00
-6.271548e+00
-6.184091e+00
-5.676942e+00
-5.799558e+00
-5.976249e+00
-6.342447e+00
-6.495349e+00
-6.551657e+00
-6.600110e+00
-6.650806e+00
-6.694385e+00
-6.718472e+00
-6.759430e+00
-6.789682e+00
-6.731898e+00
-6.661607e+00
-6.566069e+00
-6.556819e+00
-6.551951e+00
-6.678648e+00
-6.363853e+00
-6.154745e+00
-6.283640e+00
-6.595816e+00
-6.775428e+00
-6.854906e+00
-6.921594e+00
-6.975675e+00
-7.021299e+00
-7.060525e+00
-7.135568e+00
-7.124009e+00
-7.060021e+00
-7.012307e+00
-6.911524e+00
-6.854190e+00
-6.867716e+00
-7.046303e+00
-6.432731e+00
-6.307899e+00
-6.347744e+00
-6.615549e+00
-6.765306e+00
-6.840380e+00
-6.902614e+00
-6.959137e+00
-7.010474e+00
-7.057528e+00
-7.108685e+00
-7.115931e+00
-7.050795e+00
-6.994402e+00
-6.887074e+00
-6.832962e+00
-6.841250e+00
-7.015079e+00
-6.357829e+00
-6.346482e+00
-6.325574e+00
-6.546617e+00
-6.679876e+00
-6.742643e+00
-6.794230e+00
-6.844473e+00
-6.895156e+00
-6.944448e+00
-6.983104e+00
-6.992864e+00
-6.922401e+00
-6.877343e+00
-6.787359e+00
-6.744806e+00
-6.749864e+00
-6.909704e+00
-6.253217e+00
-6.367333e+00
-6.284295e+00
-6.503345e+00
-6.625373e+00
-6.679065e+00
-6.723592e+00
-6.771473e+00
-6.818119e+00
-6.860816e+00
-6.897738e+00
-6.901111e+00
-6.833364e+00
-6.803818e+00
-6.716062e+00
-6.684524e+00
-6.683055e+00
-6.842132e+00
-6.132000e+00
-6.332040e+00
-6.253562e+00
-6.469229e+00
-6.584910e+00
-6.637610e+00
-6.682001e+00
-6.725586e+00
-6.765860e+00
-6.805167e+00
-6.836904e+00
-6.840748e+00
-6.783047e+00
-6.750160e+00
-6.671166e+00
-6.641717e+00
-6.641004e+00
-6.777616e+00
-6.020931e+00
-6.267118e+00
-6.230933e+00
-6.459063e+00
-6.567598e+00
-6.617900e+00
-6.657454e+00
-6.690336e+00
-6.722377e+00
-6.751880e+00
-6.777307e+00
-6.782873e+00
-6.734254e+00
-6.708476e+00
-6.649151e+00
-6.623821e+00
-6.619971e+00
-6.732459e+00
-5.911940e+00
-6.207214e+00
-6.255234e+00
-6.464817e+00
-6.554189e+00
-6.597513e+00
-6.637006e+00
-6.669048e+00
-6.696389e+00
-6.719851e+00
-6.744156e+00
-6.750690e+00
-6.705738e+00
-6.683727e+00
-6.621751e+00
-6.598829e+00
-6.590170e+00
-6.690532e+00
-5.836664e+00
-6.156049e+00
-6.279774e+00
-6.480140e+00
-6.558034e+00
-6.577189e+00
-6.602975e+00
-6.634174e+00
-6.661394e+00
-6.686815e+00
-6.709264e+00
-6.716737e+00
-6.672796e+00
-6.651653e+00
-6.595125e+00
-6.600773e+00
-6.587888e+00
-6.660568e+00
-5.773858e+00
-6.118595e+00
-6.283208e+00
-6.479530e+00
-6.552499e+00
-6.574326e+00
-6.592167e+00
-6.609973e+00
-6.634527e+00
-6.655382e+00
-6.676121e+00
-6.680870e+00
-6.636295e+00
-6.628317e+00
-6.595662e+00
-6.596105e+00
-6.585061e+00
-6.649964e+00
-5.707829e+00
-6.100888e+00
-6.281242e+00
-6.467965e+00
-6.538778e+00
-6.559605e+00
-6.579529e+00
-6.597936e+00
-6.613224e+00
-6.631866e+00
-6.649061e+00
-6.651400e+00
-6.610661e+00
-6.610865e+00
-6.582960e+00
-6.587194e+00
-6.575570e+00
-6.641599e+00
-5.638448e+00
-6.084798e+00
-6.270321e+00
-6.454249e+00
-6.524649e+00
-6.547752e+00
-6.567587e+00
-6.584494e+00
-6.599631e+00
-6.615172e+00
-6.626414e+00
-6.629600e+00
-6.586751e+00
-6.595380e+00
-6.573400e+00
-6.579701e+00
-6.571027e+00
-6.635309e+00
-5.577661e+00
-6.071319e+00
-6.255114e+00
-6.442653e+00
-6.510519e+00
-6.535152e+00
-6.556500e+00
-6.576396e+00
-6.593103e+00
-6.605080e+00
-6.616037e+00
-6.609985e+00
-6.570660e+00
-6.587151e+00
-6.562713e+00
-6.566106e+00
-6.558011e+00
-6.629257e+00
-5.520435e+00
-6.043730e+00
-6.247149e+00
-6.434769e+00
-6.496540e+00
-6.518067e+00
-6.540022e+00
-6.559035e+00
-6.575810e+00
-6.591056e+00
-6.599422e+00
-6.592307e+00
-6.553938e+00
-6.568988e+00
-6.544869e+00
-6.552518e+00
-6.541534e+00
-6.612863e+00
-5.447209e+00
-6.030890e+00
-6.235732e+00
-6.419948e+00
-6.477417e+00
-6.497429e+00
-6.514627e+00
-6.532866e+00
-6.551061e+00
-6.565061e+00
-6.574254e+00
-6.567225e+00
-6.528631e+00
-6.541517e+00
-6.520600e+00
-6.533187e+00
-6.521533e+00
-6.583325e+00
-5.381044e+00
-6.020924e+00
-6.220674e+00
-6.399237e+00
-6.459963e+00
-6.467304e+00
-6.481379e+00
-6.494670e+00
-6.508936e+00
-6.523256e+00
-6.533934e+00
-6.528393e+00
-6.487364e+00
-6.499161e+00
-6.488800e+00
-6.523622e+00
-6.507310e+00
-6.549478e+00
-5.341274e+00
-6.030627e+00
-6.225115e+00
-6.407439e+00
-6.466726e+00
-6.471909e+00
-6.470772e+00
-6.471526e+00
-6.476526e+00
-6.483872e+00
-6.492310e+00
-6.487066e+00
-6.445105e+00
-6.471483e+00
-6.488744e+00
-6.516704e+00
-6.501295e+00
-6.532397e+00
-5.426766e+00
-6.058204e+00
-6.281713e+00
-6.454620e+00
-6.507427e+00
-6.513963e+00
-6.512826e+00
-6.509014e+00
-6.513454e+00
-6.519595e+00
-6.524617e+00
-6.514019e+00
-6.474322e+00
-6.503276e+00
-6.521338e+00
-6.549784e+00
-6.543831e+00
-6.580268e+00
-5.081048e+00
-6.028183e+00
-6.332549e+00
-6.487633e+00
-6.537055e+00
-6.543552e+00
-6.549101e+00
-6.556090e+00
-6.565499e+00
-6.575665e+00
-6.584673e+00
-6.573860e+00
-6.527059e+00
-6.550091e+00
-6.555790e+00
-6.582237e+00
-6.587359e+00
-6.570642e+00
-4.795337e+00
-5.669026e+00
-6.204299e+00
-6.362098e+00
-6.410470e+00
-6.427782e+00
-6.447860e+00
-6.467507e+00
-6.484768e+00
-6.499977e+00
-6.507326e+00
-6.495230e+00
-6.454800e+00
-6.482701e+00
-6.457975e+00
-6.466094e+00
-6.428660e+00
-6.432271e+00
-5.346366e+00
-5.982300e+00
-6.245651e+00
-6.431384e+00
-6.482359e+00
-6.503417e+00
-6.524708e+00
-6.543583e+00
-6.557292e+00
-6.570483e+00
-6.579461e+00
-6.569793e+00
-6.525744e+00
-6.561302e+00
-6.542705e+00
-6.548340e+00
-6.533581e+00
-6.466191e+00
-5.742146e+00
-6.103034e+00
-6.293166e+00
-6.472602e+00
-6.520582e+00
-6.542079e+00
-6.564128e+00
-6.583839e+00
-6.598244e+00
-6.611252e+00
-6.619579e+00
-6.607439e+00
-6.563079e+00
-6.600438e+00
-6.580600e+00
-6.590110e+00
-6.580740e+00
-6.528514e+00
-5.808617e+00
-6.119087e+00
-6.308829e+00
-6.476193e+00
-6.518964e+00
-6.540132e+00
-6.561087e+00
-6.580618e+00
-6.598240e+00
-6.609324e+00
-6.618219e+00
-6.605388e+00
-6.559309e+00
-6.597006e+00
-6.578606e+00
-6.589960e+00
-6.584170e+00
-6.535772e+00
-5.778447e+00
-6.117758e+00
-6.307458e+00
-6.464858e+00
-6.506017e+00
-6.524461e+00
-6.545703e+00
-6.564316e+00
-6.580959e+00
-6.596382e+00
-6.603800e+00
-6.591249e+00
-6.547396e+00
-6.584782e+00
-6.566604e+00
-6.580201e+00
-6.573858e+00
-6.535030e+00
-5.727807e+00
-6.023829e+00
-6.243626e+00
-6.400508e+00
-6.452720e+00
-6.473095e+00
-6.490735e+00
-6.509235e+00
-6.530288e+00
-6.551614e+00
-6.566819e+00
-6.556970e+00
-6.514291e+00
-6.548792e+00
-6.540041e+00
-6.552546e+00
-6.541137e+00
-6.505210e+00
-5.020914e+00
-5.858638e+00
-6.041344e+00
-6.254583e+00
-6.312673e+00
-6.340255e+00
-6.361283e+00
-6.386590e+00
-6.420441e+00
-6.463630e+00
-6.504657e+00
-6.512813e+00
-6.464716e+00
-6.501384e+00
-6.485315e+00
-6.530450e+00
-6.490546e+00
-6.446245e+00
-4.339463e+00
-5.458345e+00
-5.826661e+00
-6.055007e+00
-6.160410e+00
-6.190808e+00
-6.216618e+00
-6.263262e+00
-6.342267e+00
-6.396857e+00
-6.452908e+00
-6.483549e+00
-6.473453e+00
-6.482070e+00
-6.495160e+00
-6.526286e+00
-6.507278e+00
-6.428646e+00
-4.726212e+00
-4.158223e+00
-4.963633e+00
-5.593103e+00
-5.720515e+00
-5.793219e+00
-5.853812e+00
-5.949762e+00
-6.023068e+00
-6.117514e+00
-6.295538e+00
-6.450895e+00
-6.488413e+00
-6.418747e+00
-6.337373e+00
-6.327171e+00
-6.387299e+00
-6.417250e+00
-5.555582e+00
-6.345543e+00
-6.109576e+00
-6.453760e+00
-6.445699e+00
-6.442946e+00
-6.442177e+00
-6.441404e+00
-6.440572e+00
-6.439653e+00
-6.440645e+00
-6.442370e+00
-6.443833e+00
-6.446786e+00
-6.456949e+00
-6.468843e+00
-6.481265e+00
-6.496138e+00
-6.512277e+00
-6.529358e+00
-6.548373e+00
-6.567643e+00
-6.586908e+00
-6.607556e+00
-6.629762e+00
-6.651187e+00
-6.670860e+00
-6.690525e+00
-6.709946e+00
-6.730497e+00
-6.751919e+00
-6.775135e+00
-6.797745e+00
-6.824787e+00
-6.852723e+00
-6.880882e+00
-6.910735e+00
-6.942673e+00
-6.975573e+00
-7.010004e+00
-7.043299e+00
-7.075025e+00
-7.105595e+00
-7.137248e+00
-7.170900e+00
-7.204359e+00
-7.239075e+00
-7.274373e+00
-7.311781e+00
-7.351544e+00
-7.393575e+00
-7.436670e+00
-7.480347e+00
-7.522340e+00
-7.562391e+00
-7.602500e+00
-7.642910e+00
-7.680771e+00
-7.717549e+00
-7.753183e+00
-7.787804e+00
-7.819348e+00
-7.847675e+00
-7.872058e+00
-7.892293e+00
-7.907597e+00
-7.920762e+00
-7.931731e+00
-7.940474e+00
-7.947911e+00
-7.954295e+00
-7.956009e+00
-7.954247e+00
-7.946067e+00
-7.929666e+00
-7.910466e+00
-7.885738e+00
-7.852106e+00
-7.808798e+00
-7.755605e+00
-7.689901e+00
-7.614888e+00
-7.520681e+00
-7.417724e+00
-7.303455e+00
-7.188159e+00
-7.067041e+00
-6.940148e+00
-6.807018e+00
-6.680025e+00
-6.561891e+00
-6.441262e+00
-6.309417e+00
-6.167141e+00
-6.016660e+00
-5.851230e+00
-5.670117e+00
-5.462071e+00
-5.226862e+00
-4.965273e+00
-4.675249e+00
-4.372747e+00
-4.056950e+00
-3.725351e+00
-3.378341e+00
-3.016353e+00
-2.660171e+00
-2.283374e+00
-1.908318e+00
-1.538114e+00
-1.175985e+00
-8.131890e-01
-4.409444e-01
-3.736742e-02
3.501562e-01
7.010805e-01
1.040625e+00
1.361632e+00
1.673532e+00
1.990511e+00
2.303171e+00
2.613723e+00
2.937186e+00
3.258016e+00
3.577886e+00
3.887389e+00
4.199551e+00
4.486184e+00
4.776404e+00
5.060192e+00
5.319949e+00
5.574339e+00
5.830118e+00
6.104345e+00
6.402389e+00
6.712731e+00
7.003438e+00
7.248617e+00
7.469106e+00
7.675820e+00
7.871520e+00
8.052265e+00
8.213271e+00
8.364730e+00
8.507406e+00
8.639584e+00
8.764068e+00
8.892647e+00
9.012103e+00
9.123695e+00
9.231515e+00
9.332924e+00
9.423092e+00
9.503956e+00
9.579532e+00
9.643889e+00
9.700226e+00
9.750987e+00
9.789979e+00
9.817099e+00
9.832389e+00
9.830538e+00
9.820568e+00
9.798066e+00
9.765620e+00
9.729644e+00
9.700743e+00
9.666365e+00
9.624582e+00
9.583799e+00
9.545592e+00
9.540738e+00
9.750958e+00
1.041172e+01
1.113567e+01
1.033472e+01
8.600793e+00
7.405445e+00
7.489616e+00
8.852339e+00
-6.330340e+00
-6.660850e+00
-6.824702e+00
-6.857296e+00
-6.878106e+00
-6.874656e+00
-6.864907e+00
-6.854913e+00
-6.845453e+00
-6.839457e+00
-6.833358e+00
-6.828533e+00
-6.825350e+00
-6.823096e+00
-6.821406e+00
-6.820291e+00
-6.819669e+00
-6.818377e+00
-6.816939e+00
-6.816602e+00
-6.821803e+00
-6.828441e+00
-6.835564e+00
-6.845120e+00
-6.856661e+00
-6.873831e+00
-6.892002e+00
-6.910539e+00
-6.929397e+00
-6.946937e+00
-6.965583e+00
-6.986280e+00
-7.008544e+00
-7.031639e+00
-7.054612e+00
-7.077284e+00
-7.098844e+00
-7.121712e+00
-7.145960e+00
-7.169290e+00
-7.195472e+00
-7.224006e+00
-7.253309e+00
-7.282394e+00
-7.310556e+00
-7.340987e+00
-7.372861e+00
-7.405155e+00
-7.435942e+00
-7.466773e+00
-7.497759e+00
-7.529888e+00
-7.564991e+00
-7.602350e+00
-7.639946e+00
-7.678696e+00
-7.714950e+00
-7.749054e+00
-7.779766e+00
-7.807834e+00
-7.834232e+00
-7.857532e+00
-7.878805e+00
-7.899963e+00
-7.920258e+00
-7.939020e+00
-7.954761e+00
-7.971287e+00
-7.984126e+00
-7.993187e+00
-7.997003e+00
-7.994053e+00
-7.984348e+00
-7.969782e+00
-7.950841e+00
-7.928674e+00
-7.902200e+00
-7.870103e+00
-7.830801e+00
-7.785564e+00
-7.743161e+00
-7.704123e+00
-7.657915e+00
-7.602031e+00
-7.539217e+00
-7.468436e+00
-7.385442e+00
-7.291157e+00
-7.182181e+00
-7.072708e+00
-6.955569e+00
-6.818967e+00
-6.678878e+00
-6.535181e+00
-6.385362e+00
-6.226364e+00
-6.047733e+00
-5.866241e+00
-5.669506e+00
-5.459935e+00
-5.217590e+00
-4.955442e+00
-4.674773e+00
-4.391991e+00
-4.074164e+00
-3.715983e+00
-3.359329e+00
-3.038486e+00
-2.740714e+00
-2.435527e+00
-2.120111e+00
-1.800995e+00
-1.466092e+00
-1.121918e+00
-7.611380e-01
-4.062014e-01
-3.618819e-02
3.536540e-01
7.407124e-01
1.129128e+00
1.500555e+00
1.878360e+00
2.262337e+00
2.621496e+00
2.961114e+00
3.284046e+00
3.593401e+00
3.900669e+00
4.207676e+00
4.505600e+00
4.800364e+00
5.089225e+00
5.380319e+00
5.675473e+00
5.959374e+00
6.243372e+00
6.527164e+00
6.786350e+00
7.019585e+00
7.242955e+00
7.451239e+00
7.644316e+00
7.821627e+00
7.979962e+00
8.126417e+00
8.263773e+00
8.393941e+00
8.516453e+00
8.621257e+00
8.716626e+00
8.805859e+00
8.886834e+00
8.958515e+00
9.028314e+00
9.088632e+00
9.137092e+00
9.176374e+00
9.208706e+00
9.226955e+00
9.230407e+00
9.223158e+00
9.206350e+00
9.185671e+00
9.161828e+00
9.133612e+00
9.092573e+00
9.045278e+00
8.992093e+00
8.936342e+00
8.880070e+00
8.829266e+00
8.810897e+00
8.944891e+00
9.549369e+00
1.032854e+01
9.622497e+00
9.101412e+00
9.666476e+00
1.044942e+01
1.180687e+01
-6.050673e+00
-6.754239e+00
-6.687202e+00
-6.746538e+00
-6.765983e+00
-6.761348e+00
-6.752659e+00
-6.743858e+00
-6.736371e+00
-6.731260e+00
-6.728796e+00
-6.726784e+00
-6.726413e+00
-6.726545e+00
-6.727054e+00
-6.729540e+00
-6.733790e+00
-6.738234e+00
-6.743176e+00
-6.747743e+00
-6.752786e+00
-6.757790e+00
-6.761376e+00
-6.764832e+00
-6.771170e+00
-6.779415e+00
-6.792017e+00
-6.809328e+00
-6.829037e+00
-6.849699e+00
-6.872438e+00
-6.897233e+00
-6.921165e+00
-6.945750e+00
-6.970560e+00
-6.993753e+00
-7.016038e+00
-7.037393e+00
-7.061084e+00
-7.089733e+00
-7.120264e+00
-7.152847e+00
-7.189512e+00
-7.227314e+00
-7.264302e+00
-7.301531e+00
-7.340443e+00
-7.376695e+00
-7.413802e+00
-7.447434e+00
-7.478456e+00
-7.508256e+00
-7.537732e+00
-7.571617e+00
-7.607338e+00
-7.644339e+00
-7.683773e+00
-7.724163e+00
-7.761543e+00
-7.798169e+00
-7.830273e+00
-7.860175e+00
-7.887268e+00
-7.913711e+00
-7.937310e+00
-7.957724e+00
-7.978473e+00
-7.993451e+00
-8.000535e+00
-8.002072e+00
-7.994066e+00
-7.978498e+00
-7.957308e+00
-7.929794e+00
-7.894978e+00
-7.855027e+00
-7.811408e+00
-7.765863e+00
-7.717811e+00
-7.665375e+00
-7.607506e+00
-7.549291e+00
-7.485149e+00
-7.414539e+00
-7.332725e+00
-7.239474e+00
-7.146698e+00
-7.053977e+00
-6.955457e+00
-6.850320e+00
-6.738333e+00
-6.613265e+00
-6.489362e+00
-6.367178e+00
-6.223431e+00
-6.056467e+00
-5.865409e+00
-5.655875e+00
-5.425497e+00
-5.188813e+00
-4.965635e+00
-4.717991e+00
-4.477536e+00
-4.239201e+00
-3.973316e+00
-3.689733e+00
-3.390363e+00
-3.096893e+00
-2.816914e+00
-2.536938e+00
-2.259631e+00
-1.976022e+00
-1.698247e+00
-1.397934e+00
-1.068643e+00
-7.295253e-01
-3.756961e-01
-1.237061e-02
3.502581e-01
7.197461e-01
1.101634e+00
1.486939e+00
1.862952e+00
2.232218e+00
2.600024e+00
2.943190e+00
3.271056e+00
3.604065e+00
3.924222e+00
4.237250e+00
4.524486e+00
4.821611e+00
5.099616e+00
5.345009e+00
5.570606e+00
5.800310e+00
6.025630e+00
6.239151e+00
6.445170e+00
6.653503e+00
6.855350e+00
7.051583e+00
7.248163e+00
7.439737e+00
7.622555e+00
7.799378e+00
7.967122e+00
8.133875e+00
8.293433e+00
8.451859e+00
8.605161e+00
8.746075e+00
8.873058e+00
8.989353e+00
9.090298e+00
9.176137e+00
9.247770e+00
9.306417e+00
9.353997e+00
9.388131e+00
9.408361e+00
9.415723e+00
9.414550e+00
9.410557e+00
9.401364e+00
9.386191e+00
9.365224e+00
9.341577e+00
9.313347e+00
9.280230e+00
9.242496e+00
9.225176e+00
9.389648e+00
1.007722e+01
1.071960e+01
8.866971e+00
8.341496e+00
9.757472e+00
1.103596e+01
1.275454e+01
-6.406403e+00
-6.801444e+00
-6.742435e+00
-6.879068e+00
-6.917093e+00
-6.920989e+00
-6.922741e+00
-6.924453e+00
-6.926312e+00
-6.928547e+00
-6.931161e+00
-6.935860e+00
-6.941052e+00
-6.944563e+00
-6.947666e+00
-6.952168e+00
-6.957515e+00
-6.964294e+00
-6.972343e+00
-6.981189e+00
-6.989297e+00
-6.996310e+00
-7.003133e+00
-7.013748e+00
-7.026815e+00
-7.040296e+00
-7.052488e+00
-7.063838e+00
-7.072450e+00
-7.081529e+00
-7.094718e+00
-7.112386e+00
-7.133449e+00
-7.155533e+00
-7.178491e+00
-7.204668e+00
-7.233411e+00
-7.259225e+00
-7.285182e+00
-7.312448e+00
-7.343124e+00
-7.371929e+00
-7.400973e+00
-7.432876e+00
-7.467921e+00
-7.506653e+00
-7.549537e+00
-7.591510e+00
-7.633226e+00
-7.672018e+00
-7.709161e+00
-7.744567e+00
-7.778322e+00
-7.809043e+00
-7.844927e+00
-7.883470e+00
-7.920905e+00
-7.956801e+00
-7.993413e+00
-8.027020e+00
-8.060318e+00
-8.092687e+00
-8.125703e+00
-8.156530e+00
-8.183232e+00
-8.206172e+00
-8.225150e+00
-8.238233e+00
-8.243241e+00
-8.243437e+00
-8.234406e+00
-8.219310e+00
-8.196235e+00
-8.166213e+00
-8.130136e+00
-8.092136e+00
-8.053933e+00
-8.010062e+00
-7.962899e+00
-7.908693e+00
-7.848189e+00
-7.778439e+00
-7.697025e+00
-7.610440e+00
-7.519612e+00
-7.420673e+00
-7.318042e+00
-7.213586e+00
-7.099698e+00
-6.971049e+00
-6.829638e+00
-6.686351e+00
-6.556082e+00
-6.437954e+00
-6.327596e+00
-6.206514e+00
-6.063404e+00
-5.902913e+00
-5.722866e+00
-5.516761e+00
-5.296152e+00
-5.079674e+00
-4.856858e+00
-4.622298e+00
-4.373032e+00
-4.091115e+00
-3.783253e+00
-3.479046e+00
-3.195979e+00
-2.914129e+00
-2.625018e+00
-2.329416e+00
-2.009319e+00
-1.688646e+00
-1.337344e+00
-1.007635e+00
-6.654838e-01
-3.025695e-01
7.539441e-02
4.411648e-01
8.182836e-01
1.211527e+00
1.594827e+00
1.986637e+00
2.396185e+00
2.790441e+00
3.184766e+00
3.559627e+00
3.905217e+00
4.223128e+00
4.530183e+00
4.823330e+00
5.101340e+00
5.368910e+00
5.628572e+00
5.890227e+00
6.137552e+00
6.372923e+00
6.597165e+00
6.822333e+00
7.050657e+00
7.273520e+00
7.487218e+00
7.692771e+00
7.898589e+00
8.102321e+00
8.314826e+00
8.531117e+00
8.739978e+00
8.946625e+00
9.146823e+00
9.339592e+00
9.520100e+00
9.688539e+00
9.843759e+00
9.984249e+00
1.010876e+01
1.022452e+01
1.032575e+01
1.040889e+01
1.048041e+01
1.054602e+01
1.059667e+01
1.063625e+01
1.066570e+01
1.067320e+01
1.066765e+01
1.065191e+01
1.063923e+01
1.061403e+01
1.057784e+01
1.055624e+01
1.070256e+01
1.142555e+01
1.201152e+01
9.341344e+00
8.263194e+00
9.919510e+00
1.139734e+01
1.346474e+01
-6.510418e+00
-6.827824e+00
-6.787051e+00
-6.930747e+00
-6.978521e+00
-6.988334e+00
-6.993963e+00
-6.999804e+00
-7.006578e+00
-7.016098e+00
-7.026624e+00
-7.037902e+00
-7.050010e+00
-7.060874e+00
-7.070500e+00
-7.080701e+00
-7.091760e+00
-7.101192e+00
-7.109775e+00
-7.118787e+00
-7.125861e+00
-7.130488e+00
-7.134746e+00
-7.139687e+00
-7.145430e+00
-7.152322e+00
-7.159956e+00
-7.167440e+00
-7.174693e+00
-7.183638e+00
-7.193120e+00
-7.204924e+00
-7.219545e+00
-7.236432e+00
-7.257142e+00
-7.278685e+00
-7.300902e+00
-7.325850e+00
-7.348112e+00
-7.370084e+00
-7.393512e+00
-7.426829e+00
-7.463875e+00
-7.503831e+00
-7.543381e+00
-7.580293e+00
-7.616152e+00
-7.653480e+00
-7.690017e+00
-7.724365e+00
-7.758016e+00
-7.791711e+00
-7.826339e+00
-7.862977e+00
-7.899748e+00
-7.935036e+00
-7.967567e+00
-8.000743e+00
-8.032055e+00
-8.060171e+00
-8.086822e+00
-8.113675e+00
-8.136765e+00
-8.154512e+00
-8.169001e+00
-8.184392e+00
-8.197727e+00
-8.207528e+00
-8.211520e+00
-8.208463e+00
-8.198804e+00
-8.184802e+00
-8.170801e+00
-8.149847e+00
-8.120138e+00
-8.086532e+00
-8.046685e+00
-8.005786e+00
-7.959810e+00
-7.910000e+00
-7.849249e+00
-7.779893e+00
-7.701523e+00
-7.614343e+00
-7.519321e+00
-7.419826e+00
-7.311796e+00
-7.197937e+00
-7.080801e+00
-6.943369e+00
-6.794806e+00
-6.659456e+00
-6.546441e+00
-6.452713e+00
-6.359180e+00
-6.255925e+00
-6.125800e+00
-5.983313e+00
-5.830133e+00
-5.655400e+00
-5.463933e+00
-5.267951e+00
-5.037277e+00
-4.789597e+00
-4.517137e+00
-4.230834e+00
-3.944957e+00
-3.639176e+00
-3.342597e+00
-3.056070e+00
-2.773673e+00
-2.466898e+00
-2.137642e+00
-1.795803e+00
-1.463762e+00
-1.123962e+00
-7.631164e-01
-3.906702e-01
-4.281501e-04
4.118027e-01
8.237659e-01
1.230879e+00
1.633215e+00
2.021306e+00
2.421408e+00
2.825609e+00
3.214634e+00
3.572845e+00
3.899730e+00
4.215856e+00
4.523217e+00
4.813059e+00
5.087520e+00
5.338790e+00
5.585093e+00
5.830865e+00
6.071437e+00
6.299117e+00
6.523802e+00
6.762937e+00
7.015374e+00
7.263184e+00
7.498761e+00
7.720880e+00
7.937428e+00
8.158944e+00
8.384950e+00
8.603261e+00
8.819323e+00
9.027435e+00
9.223882e+00
9.405970e+00
9.575922e+00
9.743419e+00
9.909956e+00
1.007153e+01
1.022522e+01
1.037097e+01
1.050773e+01
1.063235e+01
1.074237e+01
1.083696e+01
1.091207e+01
1.097062e+01
1.101516e+01
1.104547e+01
1.106895e+01
1.107070e+01
1.106433e+01
1.104450e+01
1.100164e+01
1.097304e+01
1.112065e+01
1.185349e+01
1.249858e+01
9.438332e+00
8.213809e+00
1.004333e+01
1.176079e+01
1.391870e+01
-6.603986e+00
-6.809019e+00
-6.806350e+00
-6.976981e+00
-7.032312e+00
-7.045240e+00
-7.052512e+00
-7.064092e+00
-7.076494e+00
-7.088913e+00
-7.101511e+00
-7.114068e+00
-7.126157e+00
-7.137894e+00
-7.149624e+00
-7.159950e+00
-7.169508e+00
-7.181854e+00
-7.193041e+00
-7.201100e+00
-7.206260e+00
-7.210923e+00
-7.216001e+00
-7.222138e+00
-7.229420e+00
-7.237860e+00
-7.246278e+00
-7.255350e+00
-7.264004e+00
-7.272069e+00
-7.283302e+00
-7.296241e+00
-7.312919e+00
-7.332644e+00
-7.353321e+00
-7.370129e+00
-7.387450e+00
-7.404990e+00
-7.425898e+00
-7.450504e+00
-7.477289e+00
-7.506830e+00
-7.537276e+00
-7.570622e+00
-7.600447e+00
-7.632408e+00
-7.665478e+00
-7.701239e+00
-7.735687e+00
-7.769301e+00
-7.800590e+00
-7.829080e+00
-7.861558e+00
-7.899645e+00
-7.931560e+00
-7.960066e+00
-7.984276e+00
-8.005108e+00
-8.024442e+00
-8.043695e+00
-8.060879e+00
-8.075129e+00
-8.090243e+00
-8.103796e+00
-8.113476e+00
-8.120845e+00
-8.124741e+00
-8.125165e+00
-8.124048e+00
-8.125877e+00
-8.125004e+00
-8.120900e+00
-8.110065e+00
-8.096845e+00
-8.075573e+00
-8.048752e+00
-8.018787e+00
-7.982763e+00
-7.937636e+00
-7.883676e+00
-7.828141e+00
-7.766121e+00
-7.696592e+00
-7.629756e+00
-7.556759e+00
-7.467256e+00
-7.362945e+00
-7.232250e+00
-7.090434e+00
-6.950795e+00
-6.809248e+00
-6.679381e+00
-6.573737e+00
-6.482733e+00
-6.393398e+00
-6.281027e+00
-6.154476e+00
-6.019425e+00
-5.869948e+00
-5.713350e+00
-5.539938e+00
-5.340505e+00
-5.110493e+00
-4.849436e+00
-4.569129e+00
-4.270724e+00
-3.957814e+00
-3.641072e+00
-3.329033e+00
-3.005852e+00
-2.670488e+00
-2.328274e+00
-1.989539e+00
-1.682753e+00
-1.334512e+00
-9.686239e-01
-5.919993e-01
-2.250128e-01
1.662729e-01
5.789707e-01
9.887246e-01
1.368867e+00
1.729548e+00
2.077819e+00
2.431406e+00
2.787447e+00
3.138454e+00
3.470102e+00
3.800763e+00
4.124066e+00
4.430748e+00
4.727286e+00
4.999791e+00
5.257923e+00
5.508848e+00
5.754442e+00
5.993214e+00
6.216434e+00
6.445039e+00
6.688489e+00
6.952968e+00
7.216947e+00
7.465997e+00
7.691045e+00
7.903446e+00
8.107699e+00
8.306459e+00
8.510747e+00
8.710846e+00
8.904174e+00
9.091867e+00
9.269124e+00
9.438039e+00
9.599087e+00
9.755923e+00
9.912434e+00
1.006222e+01
1.020951e+01
1.035528e+01
1.049020e+01
1.061269e+01
1.071790e+01
1.080920e+01
1.089063e+01
1.096005e+01
1.100812e+01
1.103157e+01
1.103730e+01
1.103164e+01
1.100886e+01
1.095800e+01
1.091161e+01
1.105147e+01
1.178215e+01
1.247643e+01
9.346779e+00
8.231717e+00
1.024137e+01
1.205041e+01
1.421783e+01
-6.671549e+00
-6.786029e+00
-6.837363e+00
-7.031647e+00
-7.088155e+00
-7.099674e+00
-7.106014e+00
-7.112681e+00
-7.119758e+00
-7.131365e+00
-7.143166e+00
-7.157494e+00
-7.171140e+00
-7.184789e+00
-7.198080e+00
-7.213000e+00
-7.226648e+00
-7.237780e+00
-7.247464e+00
-7.257940e+00
-7.267379e+00
-7.276655e+00
-7.284912e+00
-7.295406e+00
-7.308666e+00
-7.319427e+00
-7.331279e+00
-7.345496e+00
-7.360258e+00
-7.376015e+00
-7.390088e+00
-7.404048e+00
-7.417339e+00
-7.430744e+00
-7.444649e+00
-7.459172e+00
-7.474913e+00
-7.494373e+00
-7.517067e+00
-7.541750e+00
-7.565018e+00
-7.585649e+00
-7.604023e+00
-7.622454e+00
-7.650164e+00
-7.681067e+00
-7.716448e+00
-7.750849e+00
-7.785114e+00
-7.821442e+00
-7.853382e+00
-7.882167e+00
-7.909971e+00
-7.938070e+00
-7.960742e+00
-7.981394e+00
-7.997483e+00
-8.011094e+00
-8.021688e+00
-8.028216e+00
-8.038055e+00
-8.050140e+00
-8.059002e+00
-8.060593e+00
-8.057342e+00
-8.053647e+00
-8.060125e+00
-8.067423e+00
-8.075894e+00
-8.078889e+00
-8.079853e+00
-8.080299e+00
-8.070992e+00
-8.059672e+00
-8.045475e+00
-8.027187e+00
-8.000805e+00
-7.973832e+00
-7.933830e+00
-7.892563e+00
-7.853967e+00
-7.816072e+00
-7.766493e+00
-7.707237e+00
-7.627598e+00
-7.531618e+00
-7.419352e+00
-7.292439e+00
-7.154465e+00
-7.013433e+00
-6.872249e+00
-6.744232e+00
-6.636411e+00
-6.533435e+00
-6.423187e+00
-6.296863e+00
-6.160055e+00
-6.013940e+00
-5.855446e+00
-5.692488e+00
-5.521599e+00
-5.325551e+00
-5.080225e+00
-4.808310e+00
-4.504462e+00
-4.195758e+00
-3.888249e+00
-3.561229e+00
-3.207561e+00
-2.834011e+00
-2.475933e+00
-2.120459e+00
-1.782276e+00
-1.453813e+00
-1.100848e+00
-7.416115e-01
-3.732917e-01
-1.771080e-02
3.463435e-01
7.188009e-01
1.065384e+00
1.386280e+00
1.704676e+00
2.030776e+00
2.344643e+00
2.659835e+00
2.977986e+00
3.291503e+00
3.623026e+00
3.966767e+00
4.291836e+00
4.605680e+00
4.904264e+00
5.184313e+00
5.456956e+00
5.733209e+00
5.970585e+00
6.210782e+00
6.459073e+00
6.729935e+00
6.993981e+00
7.246408e+00
7.485109e+00
7.701736e+00
7.882918e+00
8.041148e+00
8.209586e+00
8.382226e+00
8.558956e+00
8.736238e+00
8.912340e+00
9.083456e+00
9.249986e+00
9.412527e+00
9.575275e+00
9.736342e+00
9.898798e+00
1.005014e+01
1.018646e+01
1.031072e+01
1.043165e+01
1.054298e+01
1.063998e+01
1.072778e+01
1.080334e+01
1.086555e+01
1.090641e+01
1.093171e+01
1.093330e+01
1.090563e+01
1.085359e+01
1.079832e+01
1.091908e+01
1.165308e+01
1.236928e+01
9.241100e+00
8.302940e+00
1.045261e+01
1.228910e+01
1.438360e+01
-6.740970e+00
-6.764234e+00
-6.853967e+00
-7.081598e+00
-7.138474e+00
-7.150291e+00
-7.158063e+00
-7.167094e+00
-7.174307e+00
-7.180824e+00
-7.191211e+00
-7.201742e+00
-7.212040e+00
-7.222283e+00
-7.233258e+00
-7.246117e+00
-7.258653e+00
-7.270716e+00
-7.282519e+00
-7.295807e+00
-7.308571e+00
-7.320752e+00
-7.333501e+00
-7.348269e+00
-7.364749e+00
-7.379821e+00
-7.393886e+00
-7.407556e+00
-7.418293e+00
-7.429814e+00
-7.443311e+00
-7.460422e+00
-7.477651e+00
-7.493545e+00
-7.511679e+00
-7.530796e+00
-7.551522e+00
-7.572939e+00
-7.592373e+00
-7.609753e+00
-7.629433e+00
-7.647616e+00
-7.662438e+00
-7.679083e+00
-7.699211e+00
-7.722920e+00
-7.757045e+00
-7.794311e+00
-7.826747e+00
-7.861648e+00
-7.896235e+00
-7.925284e+00
-7.950733e+00
-7.973594e+00
-7.991736e+00
-8.003952e+00
-8.011709e+00
-8.015977e+00
-8.017879e+00
-8.024419e+00
-8.027532e+00
-8.032182e+00
-8.033576e+00
-8.034779e+00
-8.035204e+00
-8.035008e+00
-8.038048e+00
-8.048604e+00
-8.058097e+00
-8.063958e+00
-8.066854e+00
-8.068498e+00
-8.075590e+00
-8.075668e+00
-8.067121e+00
-8.052439e+00
-8.041073e+00
-8.024448e+00
-8.006943e+00
-7.990424e+00
-7.975021e+00
-7.952793e+00
-7.910437e+00
-7.849635e+00
-7.760444e+00
-7.654078e+00
-7.535129e+00
-7.403180e+00
-7.252607e+00
-7.091915e+00
-6.953774e+00
-6.831254e+00
-6.711211e+00
-6.597112e+00
-6.477752e+00
-6.340435e+00
-6.182107e+00
-6.013588e+00
-5.832843e+00
-5.636148e+00
-5.435049e+00
-5.211857e+00
-4.961116e+00
-4.679721e+00
-4.372477e+00
-4.058830e+00
-3.745541e+00
-3.429376e+00
-3.090765e+00
-2.727073e+00
-2.365028e+00
-2.000516e+00
-1.660211e+00
-1.328267e+00
-9.730310e-01
-6.137086e-01
-2.803921e-01
3.163919e-02
3.444577e-01
6.756992e-01
1.008550e+00
1.329131e+00
1.624954e+00
1.909636e+00
2.211818e+00
2.509441e+00
2.807562e+00
3.112488e+00
3.424210e+00
3.752490e+00
4.101426e+00
4.448816e+00
4.784223e+00
5.099940e+00
5.390159e+00
5.673598e+00
5.938012e+00
6.193816e+00
6.456833e+00
6.715137e+00
6.970853e+00
7.215033e+00
7.440520e+00
7.652834e+00
7.843559e+00
8.000907e+00
8.152192e+00
8.306511e+00
8.462872e+00
8.615166e+00
8.773824e+00
8.935809e+00
9.094733e+00
9.252305e+00
9.403806e+00
9.557639e+00
9.712017e+00
9.858885e+00
9.993629e+00
1.011963e+01
1.023678e+01
1.034527e+01
1.044825e+01
1.053677e+01
1.061303e+01
1.067518e+01
1.072695e+01
1.077007e+01
1.078735e+01
1.077267e+01
1.073121e+01
1.068692e+01
1.080227e+01
1.153964e+01
1.223571e+01
9.172169e+00
8.393066e+00
1.062213e+01
1.248452e+01
1.450386e+01
-6.822577e+00
-6.741657e+00
-6.883613e+00
-7.132330e+00
-7.192260e+00
-7.200161e+00
-7.204255e+00
-7.209643e+00
-7.215322e+00
-7.222582e+00
-7.229980e+00
-7.242966e+00
-7.256244e+00
-7.271060e+00
-7.285826e+00
-7.299765e+00
-7.312350e+00
-7.322878e+00
-7.334062e+00
-7.345502e+00
-7.356264e+00
-7.366656e+00
-7.377561e+00
-7.390996e+00
-7.404305e+00
-7.417102e+00
-7.429284e+00
-7.442049e+00
-7.452209e+00
-7.462540e+00
-7.474874e+00
-7.493252e+00
-7.514596e+00
-7.536876e+00
-7.558663e+00
-7.580243e+00
-7.599777e+00
-7.618747e+00
-7.636752e+00
-7.653271e+00
-7.664363e+00
-7.676354e+00
-7.692695e+00
-7.715177e+00
-7.743209e+00
-7.772020e+00
-7.802217e+00
-7.836386e+00
-7.869771e+00
-7.900363e+00
-7.926228e+00
-7.946865e+00
-7.963791e+00
-7.981340e+00
-7.997405e+00
-8.008428e+00
-8.018596e+00
-8.025504e+00
-8.034494e+00
-8.041442e+00
-8.048538e+00
-8.051816e+00
-8.057474e+00
-8.062982e+00
-8.065778e+00
-8.071672e+00
-8.076605e+00
-8.084251e+00
-8.088170e+00
-8.094503e+00
-8.103299e+00
-8.110740e+00
-8.128174e+00
-8.146121e+00
-8.151185e+00
-8.147274e+00
-8.144499e+00
-8.139336e+00
-8.132495e+00
-8.124647e+00
-8.110593e+00
-8.077448e+00
-8.021914e+00
-7.941216e+00
-7.857272e+00
-7.759575e+00
-7.637150e+00
-7.490807e+00
-7.334584e+00
-7.184405e+00
-7.044525e+00
-6.911033e+00
-6.775708e+00
-6.635092e+00
-6.491916e+00
-6.336557e+00
-6.170422e+00
-5.988088e+00
-5.784618e+00
-5.564934e+00
-5.344295e+00
-5.103795e+00
-4.846415e+00
-4.552660e+00
-4.237893e+00
-3.934604e+00
-3.627316e+00
-3.314740e+00
-2.999587e+00
-2.657839e+00
-2.314926e+00
-1.987484e+00
-1.656021e+00
-1.313853e+00
-9.494766e-01
-5.866830e-01
-2.588052e-01
5.641667e-02
3.543745e-01
6.385222e-01
9.338557e-01
1.225054e+00
1.509390e+00
1.788812e+00
2.076283e+00
2.372563e+00
2.662823e+00
2.963200e+00
3.254978e+00
3.559496e+00
3.890082e+00
4.270362e+00
4.665752e+00
5.017371e+00
5.310945e+00
5.605861e+00
5.880634e+00
6.144656e+00