/*--------------------------------*- C++ -*----------------------------------*\
| =========                 |                                                 |
| \\      /  F ield         | OpenFOAM: The Open Source CFD Toolbox           |
|  \\    /   O peration     | Version:  v2406                                 |
|   \\  /    A nd           | Website:  www.openfoam.com                      |
|    \\/     M anipulation  |                                                 |
\*---------------------------------------------------------------------------*/
FoamFile
{
    version     2.0;
    format      ascii;
    class       volVectorField;
    location    "predicted";
    object      U;
}
// * * * * * * * * * * * * * * * * * * * * * * * * * * * * * * * * * * * * * //

dimensions      [0 1 -1 0 0 0 0];

internalField   nonuniform List<vector>
49181
(
(6.373865e+00 2.747562e-02 -2.208639e-01)
(7.109512e+00 -4.605978e-02 -3.618036e-02)
(7.315785e+00 2.496050e-02 -1.159805e-01)
(7.310788e+00 4.467920e-02 -1.297272e-01)
(7.251276e+00 5.241819e-02 -1.420031e-01)
(7.198465e+00 5.493026e-02 -1.456284e-01)
(7.140509e+00 5.711321e-02 -1.498052e-01)
(7.053122e+00 6.055385e-02 -1.552487e-01)
(6.921425e+00 6.751951e-02 -1.618321e-01)
(6.749855e+00 7.452689e-02 -1.661043e-01)
(6.620991e+00 8.200049e-02 -1.713423e-01)
(6.576777e+00 8.430671e-02 -1.736272e-01)
(6.600529e+00 8.312538e-02 -1.728039e-01)
(6.676157e+00 8.163401e-02 -1.701565e-01)
(6.755013e+00 7.794349e-02 -1.645856e-01)
(6.851679e+00 7.219882e-02 -1.601212e-01)
(6.789351e+00 4.085919e-02 -1.374775e-01)
(6.523749e+00 6.080253e-02 -2.075419e-01)
(7.166430e+00 -4.938132e-02 -2.961476e-02)
(8.659125e+00 1.936241e-02 -3.837789e-02)
(9.096098e+00 1.280366e-02 -4.240161e-02)
(9.236994e+00 1.802012e-02 -6.863366e-02)
(9.227681e+00 2.168980e-02 -6.801856e-02)
(9.132632e+00 2.106170e-02 -6.733741e-02)
(9.027851e+00 2.103112e-02 -6.716052e-02)
(8.873871e+00 2.283467e-02 -6.642909e-02)
(8.649447e+00 2.441288e-02 -6.449515e-02)
(8.368551e+00 2.965087e-02 -6.050656e-02)
(8.174983e+00 3.214565e-02 -5.727326e-02)
(8.085242e+00 3.330006e-02 -5.585006e-02)
(8.148605e+00 3.255569e-02 -5.620110e-02)
(8.372752e+00 3.106103e-02 -6.296242e-02)
(8.614171e+00 3.130324e-02 -6.516276e-02)
(8.760153e+00 3.143367e-02 -6.529925e-02)
(8.604241e+00 2.359180e-02 -6.294385e-02)
(8.056913e+00 8.089203e-03 -4.337983e-02)
(7.578160e+00 1.663437e-02 -9.474833e-02)
(9.371543e+00 9.162994e-03 -3.021409e-02)
(9.788263e+00 1.395099e-03 -3.623290e-02)
(1.019034e+01 1.469024e-03 -3.738229e-02)
(1.029714e+01 1.202737e-03 -3.920684e-02)
(1.032405e+01 -2.236527e-04 -4.082118e-02)
(1.031592e+01 -1.383170e-03 -4.089583e-02)
(1.027587e+01 -3.017476e-03 -4.376718e-02)
(1.019606e+01 -4.386231e-03 -4.651868e-02)
(1.006411e+01 -5.686797e-03 -5.030006e-02)
(9.961707e+00 -4.939664e-03 -5.216733e-02)
(9.930491e+00 -6.329497e-03 -5.250617e-02)
(9.943679e+00 -7.065939e-03 -5.236165e-02)
(1.010368e+01 -2.824826e-03 -4.861699e-02)
(1.022617e+01 2.078879e-03 -4.230791e-02)
(1.031008e+01 2.398522e-03 -4.107413e-02)
(1.031118e+01 2.015967e-03 -4.031546e-02)
(1.022437e+01 -3.268760e-03 -4.637637e-02)
(7.670826e+00 2.767358e-02 -1.027690e-01)
(9.778102e+00 1.337374e-02 -4.411418e-02)
(1.029879e+01 -2.116477e-03 -3.737611e-02)
(1.060868e+01 -1.169205e-03 -4.073420e-02)
(1.072119e+01 -1.221070e-03 -4.002409e-02)
(1.075776e+01 -2.361399e-03 -3.928723e-02)
(1.078350e+01 -2.827240e-03 -3.936588e-02)
(1.080533e+01 -3.155906e-03 -4.032848e-02)
(1.081263e+01 -3.525669e-03 -4.138698e-02)
(1.080231e+01 -3.884325e-03 -4.119525e-02)
(1.082518e+01 -4.996027e-03 -4.303481e-02)
(1.077958e+01 -7.251888e-03 -4.235005e-02)
(1.076694e+01 -8.246644e-03 -4.191719e-02)
(1.080348e+01 -2.841981e-03 -4.153146e-02)
(1.080205e+01 -2.536969e-03 -3.921304e-02)
(1.082049e+01 -2.069230e-03 -4.044929e-02)
(1.083231e+01 -3.176865e-03 -4.059221e-02)
(1.090507e+01 -2.637793e-03 -3.956784e-02)
(7.765698e+00 2.648481e-02 -1.025368e-01)
(1.007529e+01 1.043172e-02 -3.995831e-02)
(1.047588e+01 -6.765484e-03 -4.021078e-02)
(1.077302e+01 -5.035497e-03 -4.357440e-02)
(1.088102e+01 -3.381918e-03 -4.288301e-02)
(1.092822e+01 -4.974373e-03 -4.331587e-02)
(1.096183e+01 -6.716221e-03 -4.272117e-02)
(1.099228e+01 -8.107681e-03 -4.211365e-02)
(1.101620e+01 -9.585655e-03 -4.097658e-02)
(1.102977e+01 -1.037575e-02 -3.989016e-02)
(1.104018e+01 -1.010744e-02 -3.855156e-02)
(1.103937e+01 -1.114100e-02 -3.826773e-02)
(1.100002e+01 -1.211837e-02 -3.842471e-02)
(1.101743e+01 -9.470641e-03 -4.156403e-02)
(1.098442e+01 -5.704952e-03 -4.377962e-02)
(1.097540e+01 -3.904683e-03 -4.331231e-02)
(1.098574e+01 -4.711754e-03 -4.381678e-02)
(1.109717e+01 -7.647938e-03 -4.380807e-02)
(7.858433e+00 1.921245e-02 -9.424718e-02)
(1.022729e+01 4.703528e-03 -3.334121e-02)
(1.051209e+01 -1.341565e-02 -3.639743e-02)
(1.077524e+01 -1.192919e-02 -3.979204e-02)
(1.089102e+01 -9.286683e-03 -4.323746e-02)
(1.094372e+01 -9.200897e-03 -4.484239e-02)
(1.098814e+01 -9.480629e-03 -4.508860e-02)
(1.102900e+01 -9.796681e-03 -4.509161e-02)
(1.106832e+01 -1.007043e-02 -4.534176e-02)
(1.110202e+01 -1.030450e-02 -4.565239e-02)
(1.112750e+01 -1.095037e-02 -4.591412e-02)
(1.112893e+01 -1.200642e-02 -4.576278e-02)
(1.107652e+01 -1.277382e-02 -4.552418e-02)
(1.105952e+01 -1.041671e-02 -4.519274e-02)
(1.099416e+01 -9.719629e-03 -4.530844e-02)
(1.096205e+01 -1.008400e-02 -4.217499e-02)
(1.097150e+01 -1.074643e-02 -4.263477e-02)
(1.110935e+01 -9.563510e-03 -4.588459e-02)
(7.963468e+00 1.075047e-02 -8.483192e-02)
(1.033977e+01 5.905774e-04 -3.029884e-02)
(1.049655e+01 -1.885473e-02 -2.837465e-02)
(1.075193e+01 -1.755592e-02 -3.273141e-02)
(1.086048e+01 -1.524353e-02 -3.628366e-02)
(1.091025e+01 -1.501410e-02 -3.836242e-02)
(1.095146e+01 -1.485364e-02 -3.984698e-02)
(1.099199e+01 -1.455154e-02 -4.118956e-02)
(1.102876e+01 -1.410281e-02 -4.276647e-02)
(1.106330e+01 -1.374067e-02 -4.428739e-02)
(1.109285e+01 -1.351475e-02 -4.542180e-02)
(1.109487e+01 -1.389564e-02 -4.576993e-02)
(1.104115e+01 -1.508372e-02 -4.540134e-02)
(1.102288e+01 -1.457349e-02 -4.225415e-02)
(1.095068e+01 -1.534644e-02 -3.861658e-02)
(1.092408e+01 -1.565410e-02 -3.566912e-02)
(1.092681e+01 -1.625717e-02 -3.614326e-02)
(1.106519e+01 -1.416274e-02 -4.033147e-02)
(8.091647e+00 2.291658e-03 -7.734403e-02)
(1.043414e+01 -5.123435e-03 -2.921117e-02)
(1.048252e+01 -2.344739e-02 -2.102268e-02)
(1.072315e+01 -2.207658e-02 -2.558602e-02)
(1.082878e+01 -1.927924e-02 -2.934006e-02)
(1.087363e+01 -1.843349e-02 -3.142853e-02)
(1.090970e+01 -1.791192e-02 -3.324925e-02)
(1.094159e+01 -1.729770e-02 -3.523271e-02)
(1.097078e+01 -1.676515e-02 -3.700967e-02)
(1.099820e+01 -1.628609e-02 -3.859895e-02)
(1.102129e+01 -1.600865e-02 -3.993219e-02)
(1.102393e+01 -1.624217e-02 -4.089022e-02)
(1.098019e+01 -1.734039e-02 -4.029154e-02)
(1.096321e+01 -1.719716e-02 -3.658529e-02)
(1.090411e+01 -1.834559e-02 -3.163506e-02)
(1.088183e+01 -1.915082e-02 -2.867628e-02)
(1.088239e+01 -1.939336e-02 -2.934134e-02)
(1.099379e+01 -1.706884e-02 -3.420379e-02)
(8.260308e+00 -4.067046e-03 -6.793751e-02)
(1.049137e+01 -1.090354e-02 -3.065672e-02)
(1.047809e+01 -2.792131e-02 -1.378689e-02)
(1.070928e+01 -2.490447e-02 -1.733618e-02)
(1.080377e+01 -2.195933e-02 -2.110744e-02)
(1.084170e+01 -2.078607e-02 -2.350220e-02)
(1.087181e+01 -1.999443e-02 -2.528494e-02)
(1.089511e+01 -1.934601e-02 -2.689425e-02)
(1.091593e+01 -1.859308e-02 -2.860305e-02)
(1.093193e+01 -1.785710e-02 -3.045011e-02)
(1.094364e+01 -1.733824e-02 -3.243120e-02)
(1.094396e+01 -1.729953e-02 -3.402071e-02)
(1.091029e+01 -1.841385e-02 -3.335635e-02)
(1.090940e+01 -1.913467e-02 -2.838301e-02)
(1.086761e+01 -2.048947e-02 -2.387435e-02)
(1.085109e+01 -2.126461e-02 -2.053463e-02)
(1.084683e+01 -2.141568e-02 -2.124888e-02)
(1.093612e+01 -1.941375e-02 -2.609511e-02)
(8.450825e+00 -7.500867e-03 -6.133268e-02)
(1.053068e+01 -1.660185e-02 -2.949772e-02)
(1.050738e+01 -2.948358e-02 -7.917048e-03)
(1.071024e+01 -2.597380e-02 -1.062457e-02)
(1.078653e+01 -2.385628e-02 -1.322113e-02)
(1.081460e+01 -2.250484e-02 -1.556614e-02)
(1.083873e+01 -2.144276e-02 -1.749486e-02)
(1.085819e+01 -2.066386e-02 -1.939864e-02)
(1.087417e+01 -1.999195e-02 -2.123277e-02)
(1.088716e+01 -1.934299e-02 -2.301314e-02)
(1.089924e+01 -1.854619e-02 -2.487094e-02)
(1.089978e+01 -1.823086e-02 -2.637913e-02)
(1.086790e+01 -1.941011e-02 -2.585249e-02)
(1.086766e+01 -2.042541e-02 -2.119142e-02)
(1.083097e+01 -2.214049e-02 -1.599123e-02)
(1.082017e+01 -2.320594e-02 -1.271690e-02)
(1.080942e+01 -2.333231e-02 -1.336342e-02)
(1.087816e+01 -2.091818e-02 -1.842655e-02)
(8.635351e+00 -9.857059e-03 -5.911690e-02)
(1.053415e+01 -2.135642e-02 -2.336943e-02)
(1.055047e+01 -3.034049e-02 -3.769684e-03)
(1.073223e+01 -2.659247e-02 -6.267001e-03)
(1.079391e+01 -2.489144e-02 -8.447715e-03)
(1.080036e+01 -2.439033e-02 -1.010657e-02)
(1.081284e+01 -2.371088e-02 -1.159219e-02)
(1.082908e+01 -2.287808e-02 -1.315878e-02)
(1.084345e+01 -2.207066e-02 -1.490019e-02)
(1.085630e+01 -2.128581e-02 -1.663505e-02)
(1.086666e+01 -2.052880e-02 -1.831257e-02)
(1.086939e+01 -2.026443e-02 -1.969175e-02)
(1.083891e+01 -2.144610e-02 -1.910798e-02)
(1.083686e+01 -2.240425e-02 -1.464423e-02)
(1.081071e+01 -2.401251e-02 -1.054648e-02)
(1.082538e+01 -2.391200e-02 -8.548693e-03)
(1.080958e+01 -2.419030e-02 -8.935913e-03)
(1.084737e+01 -2.274939e-02 -1.223828e-02)
(8.794650e+00 -1.158817e-02 -5.888511e-02)
(1.053776e+01 -2.517525e-02 -1.829010e-02)
(1.058453e+01 -3.160738e-02 -5.715993e-04)
(1.074192e+01 -2.686452e-02 -3.056138e-03)
(1.079595e+01 -2.530129e-02 -5.088008e-03)
(1.080476e+01 -2.490507e-02 -6.763107e-03)
(1.081052e+01 -2.460719e-02 -8.271024e-03)
(1.081730e+01 -2.422836e-02 -9.660650e-03)
(1.082809e+01 -2.340349e-02 -1.121718e-02)
(1.083707e+01 -2.275634e-02 -1.290334e-02)
(1.084500e+01 -2.213763e-02 -1.438093e-02)
(1.084349e+01 -2.202757e-02 -1.544218e-02)
(1.081249e+01 -2.320479e-02 -1.467338e-02)
(1.082453e+01 -2.373508e-02 -1.102527e-02)
(1.081694e+01 -2.446971e-02 -7.432340e-03)
(1.083142e+01 -2.439992e-02 -5.285646e-03)
(1.081514e+01 -2.460986e-02 -5.700736e-03)
(1.084426e+01 -2.365119e-02 -9.006487e-03)
(8.928666e+00 -1.337089e-02 -5.766991e-02)
(1.054629e+01 -2.746995e-02 -1.382800e-02)
(1.060908e+01 -3.210379e-02 1.222116e-03)
(1.074455e+01 -2.727376e-02 -5.159703e-04)
(1.079509e+01 -2.570047e-02 -2.436198e-03)
(1.080307e+01 -2.547230e-02 -4.182838e-03)
(1.080842e+01 -2.516511e-02 -5.503440e-03)
(1.081299e+01 -2.487259e-02 -6.843412e-03)
(1.081754e+01 -2.458694e-02 -8.128079e-03)
(1.082414e+01 -2.398812e-02 -9.549329e-03)
(1.082971e+01 -2.338026e-02 -1.108101e-02)
(1.082581e+01 -2.327745e-02 -1.213442e-02)
(1.079848e+01 -2.443019e-02 -1.130628e-02)
(1.081727e+01 -2.477845e-02 -8.058337e-03)
(1.081734e+01 -2.505314e-02 -4.732453e-03)
(1.083505e+01 -2.466658e-02 -2.567486e-03)
(1.081891e+01 -2.501120e-02 -2.981077e-03)
(1.084420e+01 -2.413586e-02 -6.317930e-03)
(9.050746e+00 -1.479705e-02 -5.701093e-02)
(1.054539e+01 -2.875389e-02 -1.050145e-02)
(1.061096e+01 -3.219980e-02 3.226186e-03)
(1.075317e+01 -2.807823e-02 1.299129e-03)
(1.079441e+01 -2.592232e-02 -3.200404e-04)
(1.080292e+01 -2.562417e-02 -1.959277e-03)
(1.080835e+01 -2.560065e-02 -3.244332e-03)
(1.081073e+01 -2.541078e-02 -4.364285e-03)
(1.081132e+01 -2.516059e-02 -5.641853e-03)
(1.081559e+01 -2.483345e-02 -6.882736e-03)
(1.081692e+01 -2.460763e-02 -8.087696e-03)
(1.081386e+01 -2.452637e-02 -9.134769e-03)
(1.078533e+01 -2.572063e-02 -8.332413e-03)
(1.080986e+01 -2.532445e-02 -5.508701e-03)
(1.081814e+01 -2.521022e-02 -2.475882e-03)
(1.083844e+01 -2.458314e-02 -3.654806e-04)
(1.082373e+01 -2.481109e-02 -7.005153e-04)
(1.084678e+01 -2.436216e-02 -4.075542e-03)
(9.149162e+00 -1.606175e-02 -5.595061e-02)
(1.053688e+01 -2.977206e-02 -7.087964e-03)
(1.060125e+01 -3.209854e-02 5.787143e-03)
(1.075890e+01 -2.843199e-02 2.745994e-03)
(1.079339e+01 -2.610162e-02 1.395201e-03)
(1.079987e+01 -2.564208e-02 1.657039e-05)
(1.080662e+01 -2.557937e-02 -1.250243e-03)
(1.081135e+01 -2.547005e-02 -2.408528e-03)
(1.081445e+01 -2.532541e-02 -3.566214e-03)
(1.081240e+01 -2.503973e-02 -4.773632e-03)
(1.081352e+01 -2.493522e-02 -5.925838e-03)
(1.080417e+01 -2.529922e-02 -6.694147e-03)
(1.077688e+01 -2.623129e-02 -6.041407e-03)
(1.081166e+01 -2.555690e-02 -3.363540e-03)
(1.081618e+01 -2.509041e-02 -2.223847e-04)
(1.084009e+01 -2.479843e-02 1.664298e-03)
(1.082348e+01 -2.487335e-02 1.441460e-03)
(1.084938e+01 -2.425290e-02 -1.768198e-03)
(9.233542e+00 -1.727520e-02 -5.368977e-02)
(1.052046e+01 -3.082465e-02 -3.252890e-03)
(1.059235e+01 -3.129233e-02 8.445786e-03)
(1.075678e+01 -2.781739e-02 4.233751e-03)
(1.079346e+01 -2.634461e-02 3.120795e-03)
(1.079537e+01 -2.586189e-02 1.930229e-03)
(1.079589e+01 -2.549446e-02 8.740599e-04)
(1.080171e+01 -2.549426e-02 -2.973920e-04)
(1.080705e+01 -2.556665e-02 -1.586421e-03)
(1.080972e+01 -2.545734e-02 -2.740872e-03)
(1.080640e+01 -2.529434e-02 -3.844018e-03)
(1.079444e+01 -2.564084e-02 -4.587893e-03)
(1.076919e+01 -2.655602e-02 -3.897595e-03)
(1.080339e+01 -2.571073e-02 -1.203156e-03)
(1.081200e+01 -2.534287e-02 1.922962e-03)
(1.084256e+01 -2.524713e-02 3.479314e-03)
(1.082440e+01 -2.536508e-02 3.379073e-03)
(1.083792e+01 -2.402761e-02 8.723455e-04)
(9.281961e+00 -1.797075e-02 -5.108700e-02)
(1.052596e+01 -3.127345e-02 -5.691888e-04)
(1.058427e+01 -3.057992e-02 1.081405e-02)
(1.074794e+01 -2.734793e-02 5.365459e-03)
(1.078849e+01 -2.660394e-02 4.026905e-03)
(1.079110e+01 -2.649724e-02 3.230208e-03)
(1.078942e+01 -2.630247e-02 2.294508e-03)
(1.078708e+01 -2.594956e-02 1.388096e-03)
(1.078820e+01 -2.572522e-02 6.024519e-04)
(1.079073e+01 -2.571817e-02 -4.472717e-04)
(1.079094e+01 -2.584174e-02 -1.483421e-03)
(1.078060e+01 -2.624228e-02 -2.222305e-03)
(1.075374e+01 -2.709314e-02 -1.640296e-03)
(1.078442e+01 -2.592652e-02 9.176902e-04)
(1.080559e+01 -2.607278e-02 3.528678e-03)
(1.083420e+01 -2.524350e-02 4.808047e-03)
(1.081537e+01 -2.550654e-02 4.920894e-03)
(1.082763e+01 -2.478838e-02 2.898386e-03)
(9.330173e+00 -1.660345e-02 -5.059472e-02)
(1.054040e+01 -3.138431e-02 1.393238e-03)
(1.057644e+01 -2.997101e-02 1.241283e-02)
(1.073210e+01 -2.695716e-02 6.886617e-03)
(1.077935e+01 -2.647428e-02 4.847497e-03)
(1.077440e+01 -2.680721e-02 4.413375e-03)
(1.077168e+01 -2.693924e-02 3.960651e-03)
(1.076664e+01 -2.687698e-02 3.293486e-03)
(1.076345e+01 -2.668032e-02 2.413630e-03)
(1.076319e+01 -2.656277e-02 1.625760e-03)
(1.076141e+01 -2.653133e-02 7.979199e-04)
(1.075050e+01 -2.690631e-02 1.350858e-04)
(1.072426e+01 -2.783120e-02 5.809861e-04)
(1.076112e+01 -2.696806e-02 2.966428e-03)
(1.078793e+01 -2.643855e-02 4.931503e-03)
(1.082536e+01 -2.471470e-02 5.963281e-03)
(1.080391e+01 -2.516996e-02 6.165721e-03)
(1.080776e+01 -2.548447e-02 5.410127e-03)
(9.341517e+00 -1.593993e-02 -5.256550e-02)
(1.057061e+01 -3.076088e-02 2.764083e-03)
(1.057868e+01 -2.856859e-02 1.390177e-02)
(1.072792e+01 -2.526205e-02 8.165441e-03)
(1.077647e+01 -2.519236e-02 6.132218e-03)
(1.077328e+01 -2.588886e-02 5.713109e-03)
(1.076537e+01 -2.664780e-02 5.403434e-03)
(1.075729e+01 -2.725952e-02 4.939584e-03)
(1.074996e+01 -2.760686e-02 4.427852e-03)
(1.074311e+01 -2.763376e-02 3.815504e-03)
(1.073839e+01 -2.755272e-02 3.087525e-03)
(1.072759e+01 -2.784073e-02 2.457743e-03)
(1.069855e+01 -2.864914e-02 2.784810e-03)
(1.074980e+01 -2.761824e-02 4.846907e-03)
(1.078138e+01 -2.557334e-02 6.384995e-03)
(1.081381e+01 -2.394122e-02 7.462446e-03)
(1.079349e+01 -2.435324e-02 7.619702e-03)
(1.079625e+01 -2.522692e-02 6.999499e-03)
(9.082732e+00 -1.182139e-02 -3.313972e-02)
(1.056820e+01 -2.885216e-02 1.183112e-03)
(1.062866e+01 -2.652183e-02 1.423968e-02)
(1.076718e+01 -2.373321e-02 9.549178e-03)
(1.081110e+01 -2.395148e-02 7.697369e-03)
(1.080938e+01 -2.473948e-02 7.247635e-03)
(1.080092e+01 -2.548205e-02 6.942133e-03)
(1.079029e+01 -2.609625e-02 6.546031e-03)
(1.078439e+01 -2.658652e-02 6.009494e-03)
(1.077752e+01 -2.683263e-02 5.552647e-03)
(1.077085e+01 -2.688685e-02 4.867656e-03)
(1.075498e+01 -2.725872e-02 4.291387e-03)
(1.072711e+01 -2.801518e-02 4.540716e-03)
(1.077844e+01 -2.664769e-02 6.620659e-03)
(1.080986e+01 -2.460681e-02 7.947390e-03)
(1.084251e+01 -2.291289e-02 8.927892e-03)
(1.083149e+01 -2.333947e-02 8.786687e-03)
(1.083532e+01 -2.399890e-02 8.923639e-03)
(8.492013e+00 -3.370017e-02 -5.939454e-02)
(1.052249e+01 -3.155421e-02 5.465219e-04)
(1.064983e+01 -2.633800e-02 1.005314e-02)
(1.080277e+01 -2.424932e-02 7.805252e-03)
(1.084257e+01 -2.439830e-02 6.245430e-03)
(1.084057e+01 -2.503642e-02 5.851883e-03)
(1.083437e+01 -2.550492e-02 5.709403e-03)
(1.082849e+01 -2.584289e-02 5.202914e-03)
(1.082415e+01 -2.581408e-02 4.347991e-03)
(1.082046e+01 -2.567719e-02 3.437618e-03)
(1.081690e+01 -2.561309e-02 2.582144e-03)
(1.080170e+01 -2.605039e-02 1.883239e-03)
(1.076749e+01 -2.694779e-02 2.399464e-03)
(1.081402e+01 -2.607456e-02 5.303547e-03)
(1.084268e+01 -2.459435e-02 6.810477e-03)
(1.087542e+01 -2.339663e-02 7.406634e-03)
(1.086662e+01 -2.332584e-02 7.902203e-03)
(1.082691e+01 -2.550817e-02 5.047028e-03)
(7.110837e+00 -3.157803e-02 -8.230857e-02)
(9.999106e+00 -3.857171e-02 -2.397572e-02)
(1.048201e+01 -3.088495e-02 4.005066e-03)
(1.068723e+01 -2.934067e-02 2.550688e-03)
(1.072205e+01 -2.845203e-02 2.048121e-03)
(1.071914e+01 -2.826831e-02 1.154613e-03)
(1.071878e+01 -2.801243e-02 2.774300e-05)
(1.072066e+01 -2.776290e-02 -8.419726e-04)
(1.072478e+01 -2.767253e-02 -1.931703e-03)
(1.072797e+01 -2.752047e-02 -2.990528e-03)
(1.072386e+01 -2.740603e-02 -4.033883e-03)
(1.070850e+01 -2.782061e-02 -4.699071e-03)
(1.068226e+01 -2.868997e-02 -3.703170e-03)
(1.072867e+01 -2.749303e-02 -5.140454e-04)
(1.074542e+01 -2.760579e-02 1.885731e-03)
(1.076656e+01 -2.717248e-02 2.833618e-03)
(1.071361e+01 -2.829723e-02 -1.258756e-04)
(1.065864e+01 -2.846410e-02 -3.102404e-03)
(6.988785e+00 -2.702783e-02 -1.135557e-01)
(1.023141e+01 -3.361960e-02 -2.937161e-02)
(1.053395e+01 -3.304185e-02 -3.693437e-03)
(1.072163e+01 -2.832697e-02 1.758265e-04)
(1.076105e+01 -2.713696e-02 5.712018e-06)
(1.076622e+01 -2.685558e-02 -1.204695e-03)
(1.077123e+01 -2.672222e-02 -2.245603e-03)
(1.077558e+01 -2.656383e-02 -3.334263e-03)
(1.077632e+01 -2.641506e-02 -4.565933e-03)
(1.077714e+01 -2.621061e-02 -5.807524e-03)
(1.077737e+01 -2.615320e-02 -6.932218e-03)
(1.076514e+01 -2.652188e-02 -7.662172e-03)
(1.073510e+01 -2.746817e-02 -6.482831e-03)
(1.078808e+01 -2.624321e-02 -2.820766e-03)
(1.080001e+01 -2.579055e-02 -3.967841e-05)
(1.081930e+01 -2.564958e-02 3.680623e-04)
(1.078254e+01 -2.661358e-02 -2.540827e-03)
(1.068803e+01 -2.776500e-02 -9.039068e-03)
(6.863678e+00 -8.117694e-03 -1.259236e-01)
(1.033442e+01 -3.109485e-02 -3.228108e-02)
(1.058852e+01 -3.266283e-02 -4.120383e-03)
(1.075727e+01 -2.723950e-02 8.641126e-04)
(1.079499e+01 -2.602814e-02 5.745616e-04)
(1.080229e+01 -2.587101e-02 -6.906420e-04)
(1.080779e+01 -2.571100e-02 -1.811717e-03)
(1.081264e+01 -2.558257e-02 -2.955747e-03)
(1.081279e+01 -2.532855e-02 -4.153059e-03)
(1.081354e+01 -2.509565e-02 -5.391147e-03)
(1.081317e+01 -2.509005e-02 -6.498066e-03)
(1.079890e+01 -2.557533e-02 -7.152569e-03)
(1.076897e+01 -2.652547e-02 -6.001908e-03)
(1.082597e+01 -2.535672e-02 -2.466726e-03)
(1.083439e+01 -2.474962e-02 5.749277e-04)
(1.085738e+01 -2.457967e-02 8.507421e-04)
(1.082984e+01 -2.562470e-02 -2.377942e-03)
(1.074193e+01 -2.653493e-02 -8.708029e-03)
(6.885531e+00 -4.401303e-03 -1.260332e-01)
(1.037973e+01 -3.165367e-02 -3.228649e-02)
(1.060887e+01 -3.202596e-02 -2.523032e-03)
(1.076809e+01 -2.697834e-02 1.926905e-03)
(1.080059e+01 -2.590431e-02 1.614449e-03)
(1.080325e+01 -2.556688e-02 5.265265e-04)
(1.080957e+01 -2.549458e-02 -6.694710e-04)
(1.081466e+01 -2.541406e-02 -1.863405e-03)
(1.081865e+01 -2.526696e-02 -3.066144e-03)
(1.081640e+01 -2.497417e-02 -4.264454e-03)
(1.081509e+01 -2.493349e-02 -5.361355e-03)
(1.080036e+01 -2.546827e-02 -5.951072e-03)
(1.076870e+01 -2.643962e-02 -4.846602e-03)
(1.082777e+01 -2.525474e-02 -1.334933e-03)
(1.083857e+01 -2.469311e-02 1.589300e-03)
(1.086342e+01 -2.447636e-02 1.952705e-03)
(1.083799e+01 -2.526140e-02 -1.141616e-03)
(1.075232e+01 -2.655622e-02 -7.173425e-03)
(6.923778e+00 -6.911073e-03 -1.229364e-01)
(1.039947e+01 -3.234016e-02 -3.181404e-02)
(1.061058e+01 -3.152700e-02 -7.049342e-04)
(1.076662e+01 -2.702153e-02 2.912252e-03)
(1.079589e+01 -2.613475e-02 2.703352e-03)
(1.079576e+01 -2.581521e-02 1.673849e-03)
(1.079870e+01 -2.561057e-02 6.086986e-04)
(1.080392e+01 -2.558714e-02 -5.534185e-04)
(1.080839e+01 -2.559637e-02 -1.801482e-03)
(1.081138e+01 -2.540612e-02 -2.924824e-03)
(1.080719e+01 -2.529288e-02 -4.010249e-03)
(1.079126e+01 -2.577016e-02 -4.629402e-03)
(1.076330e+01 -2.676666e-02 -3.508800e-03)
(1.081725e+01 -2.522252e-02 2.770034e-05)
(1.083652e+01 -2.509411e-02 2.424984e-03)
(1.086009e+01 -2.466506e-02 3.011266e-03)
(1.083355e+01 -2.525240e-02 1.781713e-04)
(1.075712e+01 -2.683446e-02 -5.456204e-03)
(6.990402e+00 -1.494102e-02 -1.160862e-01)
(1.029375e+01 -3.527007e-02 -2.758595e-02)
(1.054925e+01 -3.178171e-02 8.571934e-04)
(1.071495e+01 -2.825441e-02 4.118249e-03)
(1.075638e+01 -2.774648e-02 3.894523e-03)
(1.075956e+01 -2.767075e-02 3.289760e-03)
(1.076029e+01 -2.750744e-02 2.244867e-03)
(1.076069e+01 -2.730935e-02 1.089695e-03)
(1.076608e+01 -2.708781e-02 2.635100e-05)
(1.077295e+01 -2.684956e-02 -1.103716e-03)
(1.077688e+01 -2.668881e-02 -2.177577e-03)
(1.076318e+01 -2.709203e-02 -2.792934e-03)
(1.073480e+01 -2.803356e-02 -1.928603e-03)
(1.078760e+01 -2.652034e-02 1.312213e-03)
(1.081357e+01 -2.613479e-02 3.982256e-03)
(1.083508e+01 -2.566786e-02 4.474526e-03)
(1.081155e+01 -2.661729e-02 1.566730e-03)
(1.072968e+01 -2.778894e-02 -3.457563e-03)
(6.973815e+00 -4.228067e-02 -9.168822e-02)
(1.009585e+01 -4.165372e-02 -1.539556e-02)
(1.032710e+01 -3.267694e-02 6.551041e-03)
(1.055534e+01 -3.028571e-02 8.324911e-03)
(1.060287e+01 -3.030592e-02 9.116635e-03)
(1.061068e+01 -3.041244e-02 8.345174e-03)
(1.061321e+01 -3.062567e-02 7.246389e-03)
(1.061657e+01 -3.049658e-02 6.170073e-03)
(1.063085e+01 -3.020405e-02 4.614210e-03)
(1.065472e+01 -2.954248e-02 2.245150e-03)
(1.067964e+01 -2.873298e-02 -7.197557e-04)
(1.068052e+01 -2.847720e-02 -2.591171e-03)
(1.064675e+01 -2.964549e-02 -1.181325e-03)
(1.069377e+01 -2.814646e-02 4.108495e-03)
(1.071356e+01 -2.763561e-02 7.048289e-03)
(1.076313e+01 -2.620290e-02 7.503297e-03)
(1.071239e+01 -2.824342e-02 3.616537e-03)
(1.064012e+01 -3.021887e-02 -3.540214e-03)
(6.747422e+00 -1.015191e-01 -5.977217e-02)
(9.704261e+00 -2.876779e-02 -1.775211e-02)
(1.020471e+01 -3.585100e-02 2.110346e-04)
(1.043750e+01 -3.017571e-02 -1.491835e-03)
(1.054673e+01 -2.943308e-02 -3.164073e-03)
(1.055797e+01 -2.929262e-02 -4.402244e-03)
(1.056516e+01 -2.901555e-02 -6.086468e-03)
(1.059579e+01 -2.817980e-02 -9.040418e-03)
(1.064841e+01 -2.611552e-02 -1.330677e-02)
(1.066064e+01 -2.269585e-02 -2.093208e-02)
(1.065774e+01 -2.033831e-02 -2.170309e-02)
(1.063638e+01 -1.916920e-02 -2.203086e-02)
(1.064071e+01 -1.928979e-02 -2.174355e-02)
(1.068256e+01 -1.836251e-02 -2.317459e-02)
(1.070341e+01 -1.693301e-02 -2.235063e-02)
(1.072679e+01 -1.564313e-02 -2.299961e-02)
(1.068264e+01 -1.652475e-02 -2.203038e-02)
(1.054043e+01 -1.785242e-02 -2.462008e-02)
(5.643881e+00 9.222602e-03 -2.208755e-01)
(7.161752e+00 -9.373417e-02 -1.385726e-02)
(8.562719e+00 -2.038908e-02 -3.782981e-02)
(8.953126e+00 -1.758653e-02 -5.479901e-02)
(8.842298e+00 -1.481392e-02 -5.583049e-02)
(8.740019e+00 -1.408983e-02 -5.439962e-02)
(8.625073e+00 -1.240136e-02 -5.306457e-02)
(8.495978e+00 -9.276085e-03 -5.138072e-02)
(8.293607e+00 -9.797765e-03 -5.879611e-02)
(7.989151e+00 -1.212682e-02 -6.787783e-02)
(7.777554e+00 -9.107021e-03 -8.087135e-02)
(7.680111e+00 -4.438994e-03 -8.775024e-02)
(7.680203e+00 -2.834331e-03 -8.914211e-02)
(7.698882e+00 -4.447932e-03 -8.636049e-02)
(7.730514e+00 -6.417325e-03 -8.203311e-02)
(7.677848e+00 -6.777481e-03 -8.146030e-02)
(7.661434e+00 -4.067410e-03 -8.534947e-02)
(7.551558e+00 -5.462301e-03 -8.858542e-02)
(2.577286e-01 2.902003e-01 -2.743368e-01)
(-3.489016e-01 2.156133e-01 -1.624123e-04)
(1.696882e-01 2.142743e-01 4.254738e-02)
(-2.555862e-01 2.325969e-01 4.778576e-02)
(-2.757755e-01 2.321425e-01 4.499068e-02)
(-2.733519e-01 2.312616e-01 4.487357e-02)
(-2.717545e-01 2.305333e-01 4.484199e-02)
(-2.710280e-01 2.298223e-01 4.482897e-02)
(-2.705116e-01 2.291402e-01 4.479272e-02)
(-2.709969e-01 2.284692e-01 4.475455e-02)
(-2.728175e-01 2.278344e-01 4.485654e-02)
(-2.757604e-01 2.272348e-01 4.497356e-02)
(-2.788316e-01 2.266093e-01 4.509615e-02)
(-2.826877e-01 2.260788e-01 4.526583e-02)
(-2.933885e-01 2.259030e-01 4.550606e-02)
(-3.055622e-01 2.258829e-01 4.569312e-02)
(-3.180577e-01 2.258896e-01 4.589953e-02)
(-3.334952e-01 2.258915e-01 4.630746e-02)
(-3.495128e-01 2.259842e-01 4.705782e-02)
(-3.654866e-01 2.260877e-01 4.784507e-02)
(-3.811911e-01 2.262716e-01 4.852596e-02)
(-3.972422e-01 2.264547e-01 4.916424e-02)
(-4.136323e-01 2.266240e-01 4.980618e-02)
(-4.315891e-01 2.268899e-01 5.045808e-02)
(-4.505301e-01 2.272230e-01 5.111133e-02)
(-4.694989e-01 2.275807e-01 5.182440e-02)
(-4.874742e-01 2.279268e-01 5.261306e-02)
(-5.050610e-01 2.282563e-01 5.346425e-02)
(-5.212118e-01 2.285088e-01 5.430800e-02)
(-5.370081e-01 2.287937e-01 5.504604e-02)
(-5.522035e-01 2.290573e-01 5.576399e-02)
(-5.704822e-01 2.293848e-01 5.654584e-02)
(-5.873916e-01 2.297566e-01 5.748218e-02)
(-6.078386e-01 2.304933e-01 5.845122e-02)
(-6.292766e-01 2.313181e-01 5.929787e-02)
(-6.504914e-01 2.321870e-01 5.997348e-02)
(-6.733386e-01 2.331658e-01 6.066280e-02)
(-6.973426e-01 2.343076e-01 6.152307e-02)
(-7.212192e-01 2.355404e-01 6.235940e-02)
(-7.457761e-01 2.368227e-01 6.294435e-02)
(-7.710090e-01 2.380252e-01 6.349307e-02)
(-7.973009e-01 2.389010e-01 6.434621e-02)
(-8.231950e-01 2.397050e-01 6.518333e-02)
(-8.496770e-01 2.405177e-01 6.604861e-02)
(-8.774268e-01 2.414411e-01 6.691638e-02)
(-9.081738e-01 2.424268e-01 6.777322e-02)
(-9.399985e-01 2.434469e-01 6.874377e-02)
(-9.720089e-01 2.444877e-01 6.928226e-02)
(-1.006274e+00 2.456477e-01 6.965912e-02)
(-1.043165e+00 2.470764e-01 7.009778e-02)
(-1.083456e+00 2.486427e-01 7.037734e-02)
(-1.123891e+00 2.503525e-01 7.040575e-02)
(-1.165654e+00 2.521699e-01 7.076070e-02)
(-1.206970e+00 2.538209e-01 7.114830e-02)
(-1.248660e+00 2.554330e-01 7.146534e-02)
(-1.292376e+00 2.569911e-01 7.184711e-02)
(-1.341878e+00 2.584280e-01 7.183880e-02)
(-1.393340e+00 2.597261e-01 7.159590e-02)
(-1.447575e+00 2.608933e-01 7.152566e-02)
(-1.501131e+00 2.619514e-01 7.133010e-02)
(-1.555020e+00 2.629865e-01 7.088835e-02)
(-1.606444e+00 2.638377e-01 7.049234e-02)
(-1.654904e+00 2.643271e-01 7.004066e-02)
(-1.702331e+00 2.646278e-01 6.939978e-02)
(-1.747769e+00 2.648805e-01 6.851122e-02)
(-1.792215e+00 2.648035e-01 6.703854e-02)
(-1.838454e+00 2.644232e-01 6.495432e-02)
(-1.884899e+00 2.640635e-01 6.305896e-02)
(-1.929344e+00 2.636084e-01 6.144347e-02)
(-1.975978e+00 2.634973e-01 5.961644e-02)
(-2.026510e+00 2.631902e-01 5.754094e-02)
(-2.073938e+00 2.626286e-01 5.540256e-02)
(-2.112799e+00 2.619219e-01 5.352831e-02)
(-2.150175e+00 2.608923e-01 5.157230e-02)
(-2.190528e+00 2.594634e-01 4.945935e-02)
(-2.226758e+00 2.579607e-01 4.729053e-02)
(-2.262499e+00 2.562657e-01 4.482279e-02)
(-2.290920e+00 2.544771e-01 4.206443e-02)
(-2.310601e+00 2.522301e-01 3.933973e-02)
(-2.326368e+00 2.497530e-01 3.635646e-02)
(-2.336797e+00 2.470097e-01 3.274998e-02)
(-2.339473e+00 2.440411e-01 2.862118e-02)
(-2.340798e+00 2.407232e-01 2.369749e-02)
(-2.334728e+00 2.371904e-01 1.860861e-02)
(-2.326842e+00 2.336766e-01 1.354479e-02)
(-2.316137e+00 2.302158e-01 8.449636e-03)
(-2.306048e+00 2.268239e-01 2.884722e-03)
(-2.293600e+00 2.234765e-01 -3.073108e-03)
(-2.281177e+00 2.201963e-01 -8.952880e-03)
(-2.272690e+00 2.176247e-01 -1.410567e-02)
(-2.273076e+00 2.156638e-01 -1.980742e-02)
(-2.272304e+00 2.136020e-01 -2.550883e-02)
(-2.261843e+00 2.110596e-01 -2.974593e-02)
(-2.247844e+00 2.080106e-01 -3.337600e-02)
(-2.231393e+00 2.046049e-01 -3.656699e-02)
(-2.202219e+00 2.006061e-01 -4.016770e-02)
(-2.168903e+00 1.960010e-01 -4.321765e-02)
(-2.136777e+00 1.908609e-01 -4.638652e-02)
(-2.103943e+00 1.854880e-01 -5.065012e-02)
(-2.068340e+00 1.796355e-01 -5.387271e-02)
(-2.027653e+00 1.733904e-01 -5.834899e-02)
(-1.993632e+00 1.672945e-01 -6.376232e-02)
(-1.964844e+00 1.606908e-01 -6.963206e-02)
(-1.947741e+00 1.536463e-01 -7.457544e-02)
(-1.924121e+00 1.463441e-01 -7.823266e-02)
(-1.889931e+00 1.385842e-01 -8.152779e-02)
(-1.850380e+00 1.309767e-01 -8.552666e-02)
(-1.794313e+00 1.237569e-01 -9.088942e-02)
(-1.722109e+00 1.183245e-01 -9.856996e-02)
(-1.648793e+00 1.137199e-01 -1.065353e-01)
(-1.575006e+00 1.090606e-01 -1.123487e-01)
(-1.491908e+00 1.033715e-01 -1.155759e-01)
(-1.394288e+00 9.737902e-02 -1.188892e-01)
(-1.271333e+00 9.225143e-02 -1.237372e-01)
(-1.148443e+00 8.806910e-02 -1.298078e-01)
(-1.045002e+00 8.547947e-02 -1.349326e-01)
(-9.580642e-01 8.323021e-02 -1.392347e-01)
(-8.744888e-01 8.117294e-02 -1.427954e-01)
(-7.999821e-01 7.984357e-02 -1.467859e-01)
(-7.273851e-01 7.871742e-02 -1.505633e-01)
(-6.695535e-01 7.818773e-02 -1.544185e-01)
(-6.158819e-01 7.818034e-02 -1.558637e-01)
(-5.570846e-01 7.814478e-02 -1.571091e-01)
(-5.059411e-01 7.803993e-02 -1.572484e-01)
(-4.533758e-01 7.818219e-02 -1.578744e-01)
(-4.007531e-01 7.873908e-02 -1.585084e-01)
(-3.448991e-01 7.917423e-02 -1.590633e-01)
(-2.943926e-01 7.984123e-02 -1.598922e-01)
(-2.427313e-01 8.039055e-02 -1.605197e-01)
(-1.709696e-01 8.052518e-02 -1.610801e-01)
(-9.875332e-02 8.074969e-02 -1.595933e-01)
(-2.670332e-02 8.075551e-02 -1.577470e-01)
(3.853069e-02 8.051986e-02 -1.554447e-01)
(1.104971e-01 8.061905e-02 -1.533275e-01)
(1.919758e-01 8.064514e-02 -1.508225e-01)
(2.734399e-01 8.042211e-02 -1.484360e-01)
(3.406559e-01 8.082160e-02 -1.476016e-01)
(3.847612e-01 8.180004e-02 -1.485174e-01)
(4.248791e-01 8.265684e-02 -1.491577e-01)
(4.640526e-01 8.412974e-02 -1.501988e-01)
(5.018817e-01 8.606547e-02 -1.514938e-01)
(5.376208e-01 8.837171e-02 -1.530353e-01)
(5.682346e-01 9.123534e-02 -1.537771e-01)
(6.018740e-01 9.408893e-02 -1.537770e-01)