/*--------------------------------*- C++ -*----------------------------------*\
| =========                 |                                                 |
| \\      /  F ield         | OpenFOAM: The Open Source CFD Toolbox           |
|  \\    /   O peration     | Version:  v2406                                 |
|   \\  /    A nd           | Website:  www.openfoam.com                      |
|    \\/     M anipulation  |                                                 |
\*---------------------------------------------------------------------------*/
FoamFile
{
    version     2.0;
    format      ascii;
    class       volScalarField;
    location    "predicted";
    object      epsilon;
}
// * * * * * * * * * * * * * * * * * * * * * * * * * * * * * * * * * * * * * //

dimensions      [0 2 -3 0 0 0 0];

internalField   nonuniform List<scalar>
49181
(
2.975281e+03
1.967123e+03
1.707435e+03
2.048011e+03
2.156641e+03
2.191025e+03
2.214974e+03
2.229420e+03
2.223049e+03
2.190589e+03
2.167395e+03
2.162476e+03
2.162314e+03
2.153816e+03
2.130984e+03
2.109725e+03
2.226006e+03
2.196132e+03
1.948076e+03
7.273479e+02
6.719438e+02
8.612367e+02
9.372509e+02
9.873039e+02
1.034807e+03
1.090052e+03
1.146279e+03
1.198108e+03
1.233140e+03
1.255343e+03
1.234713e+03
1.172906e+03
1.088647e+03
1.024829e+03
1.057597e+03
1.260186e+03
1.626160e+03
5.702020e+02
3.282136e+02
3.619024e+02
4.128590e+02
4.553152e+02
4.950126e+02
5.402783e+02
6.001445e+02
6.613833e+02
7.114415e+02
7.305172e+02
7.084080e+02
6.255839e+02
5.194092e+02
4.517893e+02
4.584027e+02
5.730344e+02
1.907982e+03
6.062882e+02
2.352116e+02
2.523696e+02
2.863530e+02
3.130980e+02
3.382519e+02
3.654017e+02
3.954406e+02
4.344584e+02
4.617411e+02
4.755377e+02
4.582693e+02
3.965659e+02
3.224773e+02
2.751639e+02
2.788168e+02
3.456973e+02
1.958588e+03
5.353476e+02
1.622446e+02
1.634836e+02
1.852613e+02
2.008049e+02
2.141324e+02
2.273145e+02
2.428843e+02
2.590489e+02
2.761056e+02
2.831924e+02
2.749038e+02
2.387740e+02
1.973426e+02
1.696218e+02
1.712231e+02
2.089293e+02
1.930374e+03
4.446930e+02
1.074109e+02
9.650482e+01
1.086564e+02
1.174709e+02
1.245304e+02
1.309151e+02
1.371079e+02
1.436501e+02
1.496961e+02
1.547400e+02
1.526471e+02
1.360607e+02
1.136624e+02
9.546598e+01
9.637379e+01
1.179739e+02
1.887410e+03
3.570324e+02
6.962262e+01
5.237217e+01
5.380454e+01
5.665382e+01
5.948278e+01
6.324354e+01
6.742852e+01
7.137248e+01
7.503585e+01
7.842772e+01
7.864016e+01
6.748824e+01
5.338084e+01
4.450030e+01
4.457142e+01
5.366497e+01
1.834835e+03
2.761146e+02
4.403752e+01
2.331466e+01
2.171915e+01
2.288656e+01
2.409568e+01
2.550330e+01
2.717008e+01
2.878290e+01
3.030545e+01
3.224939e+01
3.390524e+01
2.764529e+01
2.067582e+01
1.440955e+01
1.487587e+01
1.955169e+01
1.775172e+03
2.095176e+02
2.409075e+01
3.333607e+00
3.817349e-03
6.210907e-01
1.555613e+00
2.411053e+00
3.330311e+00
4.118607e+00
4.707134e+00
5.981682e+00
7.854438e+00
3.846735e+00
-5.365418e-01
-4.915750e+00
-3.950551e+00
-1.639444e+00
1.710587e+03
1.550280e+02
8.190633e+00
-1.067980e+01
-1.396294e+01
-1.360765e+01
-1.283788e+01
-1.215477e+01
-1.137529e+01
-1.071692e+01
-1.003215e+01
-8.746373e+00
-6.998817e+00
-1.055118e+01
-1.395382e+01
-1.738101e+01
-1.608128e+01
-1.425782e+01
1.646287e+03
1.196957e+02
-2.822704e+00
-1.875736e+01
-2.177082e+01
-2.162445e+01
-2.127361e+01
-2.079490e+01
-2.031352e+01
-1.969785e+01
-1.895550e+01
-1.778376e+01
-1.629204e+01
-1.968104e+01
-2.172007e+01
-2.423136e+01
-2.299542e+01
-2.219540e+01
1.584650e+03
1.005805e+02
-8.429718e+00
-2.258008e+01
-2.580718e+01
-2.574046e+01
-2.533679e+01
-2.463889e+01
-2.395738e+01
-2.335900e+01
-2.277561e+01
-2.197012e+01
-2.064030e+01
-2.370446e+01
-2.581351e+01
-2.808910e+01
-2.702869e+01
-2.643446e+01
1.525619e+03
8.523531e+01
-1.225206e+01
-2.538891e+01
-2.815482e+01
-2.816055e+01
-2.808859e+01
-2.763189e+01
-2.693548e+01
-2.609664e+01
-2.530739e+01
-2.453124e+01
-2.351781e+01
-2.674230e+01
-2.843827e+01
-3.031928e+01
-2.920198e+01
-2.952362e+01
1.469523e+03
7.536511e+01
-1.531547e+01
-2.740216e+01
-2.993884e+01
-3.003182e+01
-2.984699e+01
-2.978920e+01
-2.940718e+01
-2.888057e+01
-2.811390e+01
-2.736352e+01
-2.641528e+01
-2.922770e+01
-3.026491e+01
-3.231816e+01
-3.126634e+01
-3.149230e+01
1.412095e+03
6.936122e+01
-1.743411e+01
-2.950732e+01
-3.137613e+01
-3.150578e+01
-3.143876e+01
-3.138593e+01
-3.116783e+01
-3.085163e+01
-3.037758e+01
-2.973649e+01
-2.867843e+01
-3.090873e+01
-3.195135e+01
-3.367948e+01
-3.267699e+01
-3.330733e+01
1.354448e+03
6.433881e+01
-1.961402e+01
-3.053268e+01
-3.211109e+01
-3.253040e+01
-3.269926e+01
-3.271375e+01
-3.254302e+01
-3.219756e+01
-3.192816e+01
-3.138685e+01
-3.024222e+01
-3.245996e+01
-3.317898e+01
-3.430486e+01
-3.337866e+01
-3.464433e+01
1.297088e+03
6.155296e+01
-2.146729e+01
-3.098167e+01
-3.156182e+01
-3.203097e+01
-3.246035e+01
-3.288638e+01
-3.312986e+01
-3.331427e+01
-3.326293e+01
-3.263725e+01
-3.169629e+01
-3.290975e+01
-3.239496e+01
-3.370122e+01
-3.267574e+01
-3.399961e+01
1.247666e+03
6.101821e+01
-2.139109e+01
-2.978647e+01
-3.107358e+01
-3.127050e+01
-3.124502e+01
-3.132653e+01
-3.146631e+01
-3.179719e+01
-3.205520e+01
-3.194687e+01
-3.079487e+01
-3.115094e+01
-3.146830e+01
-3.296555e+01
-3.194205e+01
-3.297894e+01
1.223734e+03
6.143171e+01
-2.028778e+01
-2.837597e+01
-3.037663e+01
-3.074858e+01
-3.079983e+01
-3.070947e+01
-3.058201e+01
-3.052820e+01
-3.066543e+01
-3.055371e+01
-2.926808e+01
-3.038765e+01
-3.039332e+01
-3.107869e+01
-3.015245e+01
-3.227537e+01
1.281697e+03
6.309507e+01
-2.259069e+01
-3.004233e+01
-3.199557e+01
-3.241343e+01
-3.255499e+01
-3.267877e+01
-3.271146e+01
-3.273757e+01
-3.258282e+01
-3.217473e+01
-3.084349e+01
-3.207530e+01
-3.152954e+01
-3.222821e+01
-3.208715e+01
-3.472424e+01
1.434830e+03
6.547380e+01
-2.483670e+01
-3.481844e+01
-3.601904e+01
-3.607683e+01
-3.600666e+01
-3.589645e+01
-3.578037e+01
-3.577710e+01
-3.583439e+01
-3.538653e+01
-3.379759e+01
-3.504101e+01
-3.562699e+01
-3.694050e+01
-3.730143e+01
-3.473163e+01
1.665601e+03
1.111837e+02
-1.203548e+01
-2.514459e+01
-2.701622e+01
-2.735779e+01
-2.724070e+01
-2.702650e+01
-2.678382e+01
-2.641507e+01
-2.596998e+01
-2.520449e+01
-2.426742e+01
-2.847459e+01
-2.863852e+01
-2.904174e+01
-2.427128e+01
-1.638520e+01
1.780678e+03
1.625124e+02
-1.285056e+01
-2.580546e+01
-2.822698e+01
-2.808904e+01
-2.804191e+01
-2.788523e+01
-2.764332e+01
-2.720462e+01
-2.658850e+01
-2.574889e+01
-2.521491e+01
-2.976556e+01
-3.113662e+01
-3.114087e+01
-2.516250e+01
-1.188471e+01
1.864447e+03
1.659319e+02
-1.655482e+01
-2.901997e+01
-3.120974e+01
-3.113039e+01
-3.116050e+01
-3.099031e+01
-3.076010e+01
-3.027533e+01
-2.967430e+01
-2.884984e+01
-2.818425e+01
-3.272664e+01
-3.387545e+01
-3.412259e+01
-2.900277e+01
-1.669909e+01
1.880657e+03
1.498149e+02
-1.902626e+01
-3.068381e+01
-3.237565e+01
-3.245352e+01
-3.238162e+01
-3.234872e+01
-3.200317e+01
-3.171924e+01
-3.125271e+01
-3.047867e+01
-2.971724e+01
-3.402575e+01
-3.496731e+01
-3.535250e+01
-3.116733e+01
-2.014208e+01
1.871075e+03
1.338451e+02
-2.026506e+01
-3.128006e+01
-3.284926e+01
-3.287818e+01
-3.297740e+01
-3.289772e+01
-3.268007e+01
-3.240333e+01
-3.209633e+01
-3.137117e+01
-3.049948e+01
-3.487293e+01
-3.531090e+01
-3.596683e+01
-3.234127e+01
-2.275057e+01
1.805211e+03
1.224956e+02
-1.652540e+01
-3.020896e+01
-3.178698e+01
-3.180833e+01
-3.162982e+01
-3.135558e+01
-3.118283e+01
-3.092239e+01
-3.058988e+01
-2.985462e+01
-2.916296e+01
-3.375574e+01
-3.481814e+01
-3.562898e+01
-3.190092e+01
-2.234195e+01
1.534272e+03
1.144947e+02
3.544304e+00
-1.641736e+01
-2.089789e+01
-2.073414e+01
-2.005822e+01
-1.932275e+01
-1.850598e+01
-1.703151e+01
-1.503347e+01
-1.298800e+01
-1.324861e+01
-2.042150e+01
-2.386437e+01
-2.631464e+01
-1.939976e+01
-6.292454e+00
1.860117e+03
2.348814e+02
6.546843e+01
7.063447e+01
7.247119e+01
7.620572e+01
7.989415e+01
8.416093e+01
9.070968e+01
1.138024e+02
1.451438e+02
1.745733e+02
1.672556e+02
1.404343e+02
1.169492e+02
1.160088e+02
1.404290e+02
1.985224e+02
3.100451e+03
1.763490e+03
1.117380e+03
1.344464e+03
1.466234e+03
1.519349e+03
1.565205e+03
1.622817e+03
1.703769e+03
1.777771e+03
1.853624e+03
1.896891e+03
1.906399e+03
1.882040e+03
1.853676e+03
1.841474e+03
1.859979e+03
1.889262e+03
8.128234e+02
5.627338e+01
-1.012305e+01
-1.890923e+01
-1.747913e+01
-1.631998e+01
-1.539057e+01
-1.454582e+01
-1.372890e+01
-1.288982e+01
-1.201433e+01
-1.116100e+01
-1.033205e+01
-9.560624e+00
-8.801727e+00
-8.090791e+00
-7.461698e+00
-6.908480e+00
-6.411953e+00
-5.916555e+00
-5.461247e+00
-5.097018e+00
-4.741698e+00
-4.528625e+00
-4.341269e+00
-4.184055e+00
-4.037919e+00
-3.889851e+00
-3.740210e+00
-3.608595e+00
-3.487552e+00
-3.354897e+00
-3.192902e+00
-2.915506e+00
-2.473443e+00
-1.945022e+00
-1.176266e+00
-4.753966e-01
1.876690e-01
8.864595e-01
1.594129e+00
2.428455e+00
3.239499e+00
4.000830e+00
4.770031e+00
5.539025e+00
6.544700e+00
7.888916e+00
9.523565e+00
1.142626e+01
1.331300e+01
1.520423e+01
1.706294e+01
1.898624e+01
2.109950e+01
2.353210e+01
2.621988e+01
2.870994e+01
3.139733e+01
3.431526e+01
3.728489e+01
4.053177e+01
4.377071e+01
4.694151e+01
4.999459e+01
5.331793e+01
5.685912e+01
5.985143e+01
6.263568e+01
6.563467e+01
6.882475e+01
7.238666e+01
7.618778e+01
8.026835e+01
8.459305e+01
8.883745e+01
9.262881e+01
9.648597e+01
1.003229e+02
1.042069e+02
1.084252e+02
1.128478e+02
1.173269e+02
1.216764e+02
1.259692e+02
1.305624e+02
1.351497e+02
1.398786e+02
1.454408e+02
1.524436e+02
1.597588e+02
1.671733e+02
1.751097e+02
1.833469e+02
1.921388e+02
2.004198e+02
2.087818e+02
2.175936e+02
2.268037e+02
2.365871e+02
2.462676e+02
2.558509e+02
2.663948e+02
2.779770e+02
2.902358e+02
3.027722e+02
3.147199e+02
3.264021e+02
3.375142e+02
3.482070e+02
3.587269e+02
3.696636e+02
3.804916e+02
3.911960e+02
4.018472e+02
4.132719e+02
4.246609e+02
4.353260e+02
4.461618e+02
4.577856e+02
4.694576e+02
4.805692e+02
4.921694e+02
5.032551e+02
5.132558e+02
5.216302e+02
5.286217e+02
5.351412e+02
5.407950e+02
5.449575e+02
5.479164e+02
5.507591e+02
5.542461e+02
5.589527e+02
5.628240e+02
5.666244e+02
5.682401e+02
5.691528e+02
5.688271e+02
5.680318e+02
5.666438e+02
5.644863e+02
5.632668e+02
5.622172e+02
5.605319e+02
5.573699e+02
5.526149e+02
5.468913e+02
5.399553e+02
5.341952e+02
5.287580e+02
5.224117e+02
5.172081e+02
5.139648e+02
5.108469e+02
5.073741e+02
5.040024e+02
5.003727e+02
4.955408e+02
4.896561e+02
4.835875e+02
4.769126e+02
4.705185e+02
4.640005e+02
4.574996e+02
4.508276e+02
4.436911e+02
4.364415e+02
4.288490e+02
4.215130e+02
4.151058e+02
4.101203e+02
4.091478e+02
4.181592e+02
4.486688e+02
5.197372e+02
5.601318e+02
5.446155e+02
5.132440e+02
4.982583e+02
7.328046e+01
-6.194078e+01
-6.949040e+01
-6.969379e+01
-6.984854e+01
-6.888280e+01
-6.757906e+01
-6.628186e+01
-6.501025e+01
-6.376207e+01
-6.251336e+01
-6.132716e+01
-6.010918e+01
-5.887443e+01
-5.765105e+01
-5.646609e+01
-5.527698e+01
-5.410655e+01
-5.292873e+01
-5.177273e+01
-5.061827e+01
-4.945286e+01
-4.829932e+01
-4.714739e+01
-4.618365e+01
-4.531707e+01
-4.442938e+01
-4.355146e+01
-4.291783e+01
-4.232701e+01
-4.184400e+01
-4.159336e+01
-4.132220e+01
-4.107515e+01
-4.080378e+01
-4.049871e+01
-4.027994e+01
-4.011206e+01
-3.988797e+01
-3.973872e+01
-3.956517e+01
-3.929463e+01
-3.900349e+01
-3.864086e+01
-3.818113e+01
-3.756751e+01
-3.681630e+01
-3.600876e+01
-3.513871e+01
-3.413663e+01
-3.316104e+01
-3.210179e+01
-3.099482e+01
-2.985103e+01
-2.886706e+01
-2.803294e+01
-2.715152e+01
-2.590711e+01
-2.433064e+01
-2.253711e+01
-2.068532e+01
-1.898885e+01
-1.702299e+01
-1.493066e+01
-1.278713e+01
-1.043263e+01
-7.997543e+00
-5.691900e+00
-3.383168e+00
-8.468712e-01
1.738752e+00
4.414266e+00
7.157370e+00
9.702754e+00
1.237346e+01
1.474803e+01
1.708072e+01
1.972099e+01
2.245901e+01
2.535069e+01
2.880339e+01
3.226810e+01
3.589052e+01
3.988575e+01
4.404265e+01
4.829708e+01
5.261160e+01
5.714783e+01
6.155577e+01
6.588410e+01
7.073338e+01
7.568686e+01
8.130964e+01
8.724517e+01
9.398958e+01
1.009396e+02
1.080821e+02
1.151271e+02
1.222616e+02
1.293428e+02
1.368792e+02
1.448747e+02
1.532295e+02
1.619013e+02
1.704302e+02
1.785682e+02
1.863805e+02
1.950343e+02
2.038712e+02
2.128812e+02
2.221012e+02
2.308760e+02
2.390693e+02
2.457574e+02
2.518487e+02
2.589088e+02
2.659192e+02
2.723249e+02
2.779928e+02
2.833208e+02
2.890009e+02
2.952018e+02
3.006693e+02
3.057652e+02
3.105139e+02
3.142808e+02
3.171845e+02
3.199070e+02
3.220526e+02
3.239395e+02
3.261773e+02
3.287977e+02
3.308085e+02
3.315050e+02
3.324180e+02
3.328274e+02
3.323081e+02
3.317332e+02
3.309194e+02
3.295495e+02
3.282578e+02
3.268530e+02
3.249580e+02
3.232960e+02
3.211078e+02
3.192736e+02
3.173234e+02
3.150120e+02
3.123540e+02
3.098347e+02
3.077676e+02
3.069908e+02
3.067328e+02
3.062047e+02
3.049737e+02
3.037653e+02
3.013831e+02
2.985957e+02
2.956659e+02
2.925749e+02
2.900020e+02
2.875244e+02
2.848064e+02
2.819359e+02
2.790690e+02
2.763199e+02
2.735286e+02
2.710863e+02
2.694833e+02
2.678608e+02
2.663587e+02
2.645213e+02
2.619320e+02
2.600608e+02
2.649764e+02
3.110021e+02
3.064260e+02
2.803242e+02
2.493889e+02
2.844617e+02
7.085059e+00
-6.036998e+01
-5.815366e+01
-5.880871e+01
-5.847914e+01
-5.735610e+01
-5.603353e+01
-5.471132e+01
-5.338371e+01
-5.202090e+01
-5.064708e+01
-4.929309e+01
-4.802003e+01
-4.694388e+01
-4.589824e+01
-4.484704e+01
-4.378758e+01
-4.268447e+01
-4.161334e+01
-4.062774e+01
-3.963095e+01
-3.862212e+01
-3.762530e+01
-3.658797e+01
-3.557154e+01
-3.457017e+01
-3.349097e+01
-3.262077e+01
-3.185599e+01
-3.106992e+01
-3.016789e+01
-2.927937e+01
-2.831913e+01
-2.733478e+01
-2.641228e+01
-2.540230e+01
-2.439562e+01
-2.336571e+01
-2.214785e+01
-2.095075e+01
-1.995096e+01
-1.901489e+01
-1.798813e+01
-1.690925e+01
-1.574491e+01
-1.419923e+01
-1.262507e+01
-1.122372e+01
-9.611642e+00
-7.848407e+00
-6.124045e+00
-4.222810e+00
-2.245373e+00
-7.550225e-02
2.082104e+00
4.446398e+00
6.752754e+00
9.286348e+00
1.157515e+01
1.408333e+01
1.692176e+01
1.977744e+01
2.231160e+01
2.493999e+01
2.785738e+01
3.088052e+01
3.451865e+01
3.813160e+01
4.123421e+01
4.425590e+01
4.726571e+01
4.971104e+01
5.216746e+01
5.460124e+01
5.704004e+01
5.956231e+01
6.213415e+01
6.504904e+01
6.839556e+01
7.184770e+01
7.547239e+01
7.922813e+01
8.308572e+01
8.700303e+01
9.085984e+01
9.470013e+01
9.821294e+01
1.016404e+02
1.048087e+02
1.083712e+02
1.116868e+02
1.147952e+02
1.176790e+02
1.204615e+02
1.233893e+02
1.260646e+02
1.293153e+02
1.328896e+02
1.367603e+02
1.407989e+02
1.447898e+02
1.489445e+02
1.525670e+02
1.559924e+02
1.596493e+02
1.632124e+02
1.667097e+02
1.703557e+02
1.741807e+02
1.780969e+02
1.823094e+02
1.877431e+02
1.924999e+02
1.970865e+02
2.007441e+02
2.050747e+02
2.094684e+02
2.139421e+02
2.183942e+02
2.229924e+02
2.276020e+02
2.321634e+02
2.354499e+02
2.370158e+02
2.377329e+02
2.384565e+02
2.393398e+02
2.403566e+02
2.412605e+02
2.423932e+02
2.438259e+02
2.452867e+02
2.461340e+02
2.476753e+02
2.489558e+02
2.496521e+02
2.506793e+02
2.515693e+02
2.515591e+02
2.509929e+02
2.500083e+02
2.492101e+02
2.492177e+02
2.494281e+02
2.499850e+02
2.507535e+02
2.513166e+02
2.518317e+02
2.518843e+02
2.519787e+02
2.510983e+02
2.499567e+02
2.475814e+02
2.448275e+02
2.420083e+02
2.392726e+02
2.365737e+02
2.342195e+02
2.321958e+02
2.299985e+02
2.278741e+02
2.254669e+02
2.227227e+02
2.195753e+02
2.170231e+02
2.146940e+02
2.120391e+02
2.091822e+02
2.068883e+02
2.047952e+02
2.033486e+02
2.018499e+02
2.000432e+02
1.980441e+02
2.149427e+02
2.424289e+02
2.314340e+02
2.131819e+02
2.006662e+02
2.067837e+02
1.278398e+01
-5.277626e+01
-5.196403e+01
-5.263767e+01
-5.254828e+01
-5.166371e+01
-5.058213e+01
-4.963617e+01
-4.871407e+01
-4.779335e+01
-4.690266e+01
-4.602118e+01
-4.513275e+01
-4.421898e+01
-4.331882e+01
-4.258294e+01
-4.187488e+01
-4.109529e+01
-4.021365e+01
-3.929505e+01
-3.840017e+01
-3.746022e+01
-3.645249e+01
-3.534050e+01
-3.414575e+01
-3.299400e+01
-3.181976e+01
-3.035444e+01
-2.889498e+01
-2.741888e+01
-2.591706e+01
-2.438867e+01
-2.280320e+01
-2.113015e+01
-1.935281e+01
-1.721400e+01
-1.507531e+01
-1.293680e+01
-1.082454e+01
-8.636198e+00
-6.427544e+00
-4.244993e+00
-2.067431e+00
9.171926e-02
2.376367e+00
4.665262e+00
7.084703e+00
9.363114e+00
1.171226e+01
1.421444e+01
1.726879e+01
2.029580e+01
2.333515e+01
2.667528e+01
3.042854e+01
3.436664e+01
3.821145e+01
4.243294e+01
4.651839e+01
5.051483e+01
5.445446e+01
5.854023e+01
6.262152e+01
6.643627e+01
7.034118e+01
7.430529e+01
7.822053e+01
8.204913e+01
8.537508e+01
8.851953e+01
9.176209e+01
9.498945e+01
9.800976e+01
1.010143e+02
1.041786e+02
1.077907e+02
1.113073e+02
1.156825e+02
1.203765e+02
1.252933e+02
1.301341e+02
1.344840e+02
1.384812e+02
1.424239e+02
1.463323e+02
1.502504e+02
1.535110e+02
1.565917e+02
1.593791e+02
1.620235e+02
1.641039e+02
1.666413e+02
1.692629e+02
1.718061e+02
1.753307e+02
1.796485e+02
1.849777e+02
1.904978e+02
1.958479e+02
2.007667e+02
2.056021e+02
2.106334e+02
2.155240e+02
2.199683e+02
2.237027e+02
2.265721e+02
2.284747e+02
2.302078e+02
2.313217e+02
2.322175e+02
2.329050e+02
2.330083e+02
2.328433e+02
2.335436e+02
2.336479e+02
2.331270e+02
2.322500e+02
2.317381e+02
2.320825e+02
2.328173e+02
2.338975e+02
2.357258e+02
2.371478e+02
2.391946e+02
2.409184e+02
2.436312e+02
2.460967e+02
2.481772e+02
2.498488e+02
2.516350e+02
2.531673e+02
2.550279e+02
2.567427e+02
2.576103e+02
2.584313e+02
2.588527e+02
2.586951e+02
2.582252e+02
2.579297e+02
2.577793e+02
2.580278e+02
2.579545e+02
2.581929e+02
2.594777e+02
2.605536e+02
2.609707e+02
2.608288e+02
2.595902e+02
2.580079e+02
2.547700e+02
2.506553e+02
2.471562e+02
2.424506e+02
2.372806e+02
2.324976e+02
2.276545e+02
2.236848e+02
2.193980e+02
2.146819e+02
2.100571e+02
2.054665e+02
2.012613e+02
1.987477e+02
1.960799e+02
1.936833e+02
1.912373e+02
1.885679e+02
1.857772e+02
1.834391e+02
1.819271e+02
1.806959e+02
1.791641e+02
1.777058e+02
1.783656e+02
1.942682e+02
2.323848e+02
2.323037e+02
2.176190e+02
2.027929e+02
1.925497e+02
2.867148e+01
-4.523844e+01
-4.453573e+01
-4.473318e+01
-4.467601e+01
-4.398574e+01
-4.321844e+01
-4.245236e+01
-4.184955e+01
-4.128080e+01
-4.062810e+01
-3.988720e+01
-3.917279e+01
-3.847026e+01
-3.776077e+01
-3.704639e+01
-3.628497e+01
-3.544156e+01
-3.449044e+01
-3.351324e+01
-3.248054e+01
-3.136416e+01
-3.019129e+01
-2.873260e+01
-2.740831e+01
-2.604672e+01
-2.462321e+01
-2.307845e+01
-2.141138e+01
-1.946785e+01
-1.709028e+01
-1.466585e+01
-1.217274e+01
-9.653307e+00
-7.244913e+00
-4.787550e+00
-2.175081e+00
5.044128e-01
3.231154e+00
6.072880e+00
8.884316e+00
1.149851e+01
1.426899e+01
1.727850e+01
2.025761e+01
2.360720e+01
2.746455e+01
3.135059e+01
3.476594e+01
3.835352e+01
4.216346e+01
4.620673e+01
5.052589e+01
5.458550e+01
5.885269e+01
6.297428e+01
6.715821e+01
7.128752e+01
7.547680e+01
7.982655e+01
8.423305e+01
8.874497e+01
9.319593e+01
9.745197e+01
1.019634e+02
1.064577e+02
1.110864e+02
1.158746e+02
1.201528e+02
1.242165e+02
1.283505e+02
1.327053e+02
1.370256e+02
1.412428e+02
1.453225e+02
1.497583e+02
1.542355e+02
1.585057e+02
1.627330e+02
1.671519e+02
1.715133e+02
1.760073e+02
1.809722e+02
1.859296e+02
1.904840e+02
1.952493e+02
1.994675e+02
2.031192e+02
2.065205e+02
2.099630e+02
2.134455e+02
2.172096e+02
2.212035e+02
2.251964e+02
2.291537e+02
2.338244e+02
2.394781e+02
2.459204e+02
2.531062e+02
2.605523e+02
2.673659e+02
2.737238e+02
2.782921e+02
2.811675e+02
2.840034e+02
2.864374e+02
2.878896e+02
2.889516e+02
2.897484e+02
2.906049e+02
2.914476e+02
2.919948e+02
2.924794e+02
2.929776e+02
2.927076e+02
2.916733e+02
2.898009e+02
2.872694e+02
2.844969e+02
2.822195e+02
2.806112e+02
2.784971e+02
2.763851e+02
2.768807e+02
2.783697e+02
2.804441e+02
2.823343e+02
2.834600e+02
2.849065e+02
2.867401e+02
2.884376e+02
2.898364e+02
2.911766e+02
2.919550e+02
2.921769e+02
2.922880e+02
2.925496e+02
2.929813e+02
2.927506e+02
2.922342e+02
2.915777e+02
2.903846e+02
2.895427e+02
2.889621e+02
2.880442e+02
2.869730e+02
2.850223e+02
2.832959e+02
2.809801e+02
2.776911e+02
2.730595e+02
2.681112e+02
2.623279e+02
2.561794e+02
2.507155e+02
2.453426e+02
2.394327e+02
2.324459e+02
2.254153e+02
2.194379e+02
2.137890e+02
2.085740e+02
2.031153e+02
1.983897e+02
1.938803e+02
1.894424e+02
1.853150e+02
1.819953e+02
1.793275e+02
1.772539e+02
1.751753e+02
1.732561e+02
1.716014e+02
1.740471e+02
2.007532e+02
2.368401e+02
2.436951e+02
2.269489e+02
2.023181e+02
1.868759e+02
5.256677e+01
-3.425806e+01
-3.435683e+01
-3.517331e+01
-3.554146e+01
-3.492273e+01
-3.415807e+01
-3.340313e+01
-3.269584e+01
-3.204629e+01
-3.140300e+01
-3.077023e+01
-3.018963e+01
-2.956128e+01
-2.881052e+01
-2.805103e+01
-2.731871e+01
-2.652257e+01
-2.564050e+01
-2.468248e+01
-2.346077e+01
-2.222690e+01
-2.074400e+01
-1.915069e+01
-1.750295e+01
-1.566722e+01
-1.363090e+01
-1.153168e+01
-9.264756e+00
-6.900908e+00
-4.432586e+00
-1.787244e+00
9.108107e-01
3.639809e+00
6.426537e+00
9.359165e+00
1.250095e+01
1.576570e+01
1.937678e+01
2.316689e+01
2.695603e+01
3.116240e+01
3.551236e+01
3.971217e+01
4.399124e+01
4.795155e+01
5.206964e+01
5.647803e+01
6.131518e+01
6.609989e+01
7.080219e+01
7.562239e+01
8.019670e+01
8.458678e+01
8.855837e+01
9.262565e+01
9.669159e+01
1.008005e+02
1.051893e+02
1.099290e+02
1.147164e+02
1.192131e+02
1.239162e+02
1.287182e+02
1.337318e+02
1.389195e+02
1.446729e+02
1.503938e+02
1.558458e+02
1.610961e+02
1.653048e+02
1.690684e+02
1.730659e+02
1.770779e+02
1.811768e+02
1.858261e+02
1.907102e+02
1.956229e+02
2.008173e+02
2.061356e+02
2.113764e+02
2.167456e+02
2.230710e+02
2.293250e+02
2.355213e+02
2.420548e+02
2.483349e+02
2.543679e+02
2.599157e+02
2.643755e+02
2.685773e+02
2.731101e+02
2.779729e+02
2.833954e+02
2.888309e+02
2.942486e+02
3.005944e+02
3.075152e+02
3.130172e+02
3.184855e+02
3.234981e+02
3.289846e+02
3.333248e+02
3.365016e+02
3.389639e+02
3.405577e+02
3.410964e+02
3.415359e+02
3.424199e+02
3.436293e+02
3.451252e+02
3.464027e+02
3.474697e+02
3.481091e+02
3.486550e+02
3.475344e+02
3.458741e+02
3.434884e+02
3.410901e+02
3.387683e+02
3.363221e+02
3.329179e+02
3.295822e+02
3.266189e+02
3.247093e+02
3.234270e+02
3.227314e+02
3.242793e+02
3.258073e+02
3.276096e+02
3.298014e+02
3.307849e+02
3.307689e+02
3.305992e+02
3.308006e+02
3.313210e+02
3.311349e+02
3.300384e+02
3.286961e+02
3.284071e+02
3.279027e+02
3.265715e+02
3.245191e+02
3.225004e+02
3.211704e+02
3.197348e+02
3.181272e+02
3.155423e+02
3.119100e+02
3.066874e+02
3.010981e+02
2.954165e+02
2.885873e+02
2.807659e+02
2.721712e+02
2.636213e+02
2.562104e+02
2.488229e+02
2.415070e+02
2.343748e+02
2.271826e+02
2.211586e+02
2.158126e+02
2.105096e+02
2.058798e+02
2.007948e+02
1.966192e+02
1.933087e+02
1.903967e+02
1.874735e+02
1.845432e+02
1.819157e+02
1.797255e+02
1.831394e+02
2.091987e+02
2.476281e+02
2.574539e+02
2.369033e+02
2.021035e+02
1.862743e+02
9.029815e+01
-2.021537e+01
-2.241176e+01
-2.523526e+01
-2.562149e+01
-2.510275e+01
-2.452123e+01
-2.390749e+01
-2.323166e+01
-2.247769e+01
-2.172441e+01
-2.099939e+01
-2.024463e+01
-1.937624e+01
-1.850084e+01
-1.759138e+01
-1.658903e+01
-1.539033e+01
-1.420737e+01
-1.294042e+01
-1.147546e+01
-9.776607e+00
-7.697192e+00
-5.368415e+00
-2.934363e+00
-3.766257e-01
2.305778e+00
4.995339e+00
7.819337e+00
1.091063e+01
1.405841e+01
1.723755e+01
2.067823e+01
2.411674e+01
2.753663e+01
3.097163e+01
3.464528e+01
3.868707e+01
4.297165e+01
4.728738e+01
5.194057e+01
5.676174e+01
6.150965e+01
6.621547e+01
7.120683e+01
7.621201e+01
8.142507e+01
8.674102e+01
9.178427e+01
9.680878e+01
1.019542e+02
1.073731e+02
1.125506e+02
1.171656e+02
1.216871e+02
1.262356e+02
1.308360e+02
1.355478e+02
1.407531e+02
1.462384e+02
1.515533e+02
1.565082e+02
1.618435e+02
1.672277e+02
1.726224e+02
1.781610e+02
1.833393e+02
1.881873e+02
1.931761e+02
1.984366e+02
2.039857e+02
2.094592e+02
2.139158e+02
2.183319e+02
2.227839e+02
2.274053e+02
2.328597e+02
2.390600e+02
2.455598e+02
2.524104e+02
2.595117e+02
2.664619e+02
2.732611e+02
2.798024e+02
2.863697e+02
2.930282e+02
2.987490e+02
3.045049e+02
3.101846e+02
3.160097e+02
3.221659e+02
3.289345e+02
3.351028e+02
3.395718e+02
3.436505e+02
3.472617e+02
3.509997e+02
3.555881e+02
3.619054e+02
3.692239e+02
3.759890e+02
3.815452e+02
3.866215e+02
3.906364e+02
3.932107e+02
3.950969e+02
3.961588e+02
3.967562e+02
3.975606e+02
3.988373e+02
4.008742e+02
4.030733e+02
4.061467e+02
4.091289e+02
4.108382e+02
4.113880e+02
4.111051e+02
4.094278e+02
4.063720e+02
4.024544e+02
3.990834e+02
3.947533e+02
3.904752e+02
3.864346e+02
3.832484e+02
3.808252e+02
3.793992e+02
3.795198e+02
3.806674e+02
3.814239e+02
3.815885e+02
3.806356e+02
3.786579e+02
3.760923e+02
3.732234e+02
3.704708e+02
3.689017e+02
3.676598e+02
3.658038e+02
3.646399e+02
3.628334e+02
3.605988e+02
3.583650e+02
3.557169e+02
3.532281e+02
3.510818e+02
3.492692e+02
3.467907e+02
3.437407e+02
3.385533e+02
3.320762e+02
3.253124e+02
3.179184e+02
3.090196e+02
2.990689e+02
2.886717e+02
2.783164e+02
2.687999e+02
2.584973e+02
2.491297e+02
2.412459e+02
2.353854e+02
2.292192e+02
2.241927e+02
2.203124e+02
2.164935e+02
2.125084e+02
2.084308e+02
2.045221e+02
2.008451e+02
1.970636e+02
1.933410e+02
1.900447e+02
1.930275e+02
2.215666e+02
2.608437e+02
2.721804e+02
2.435456e+02
2.008193e+02
1.880468e+02
1.476729e+02
-2.823387e+00
-8.585803e+00
-1.291744e+01
-1.318682e+01
-1.263413e+01
-1.195197e+01
-1.124439e+01
-1.048431e+01
-9.686745e+00
-8.868812e+00
-7.997098e+00
-7.118405e+00
-6.070383e+00
-4.910583e+00
-3.511992e+00
-2.014482e+00
-1.578509e-01
1.882394e+00
4.018708e+00
6.278885e+00
8.744029e+00
1.147499e+01
1.435098e+01
1.723868e+01
2.018194e+01
2.344515e+01
2.679383e+01
3.032532e+01
3.381680e+01
3.739904e+01
4.132836e+01
4.560328e+01
5.037056e+01
5.529813e+01
6.019483e+01
6.526734e+01
7.056619e+01
7.600757e+01
8.117216e+01
8.599392e+01
9.123724e+01
9.619230e+01
1.015071e+02
1.070399e+02
1.124099e+02
1.176132e+02
1.228921e+02
1.283777e+02
1.339984e+02
1.395256e+02
1.449641e+02
1.500253e+02
1.550037e+02
1.604539e+02
1.661755e+02
1.718847e+02
1.774349e+02
1.834520e+02
1.894832e+02
1.953177e+02
2.014522e+02
2.072759e+02
2.130985e+02
2.184368e+02
2.236392e+02
2.286930e+02
2.333388e+02
2.382473e+02
2.433004e+02
2.483655e+02
2.535551e+02
2.592826e+02
2.646314e+02
2.701576e+02
2.761999e+02
2.824481e+02
2.894284e+02
2.965495e+02
3.039085e+02
3.112927e+02
3.183362e+02
3.251780e+02
3.315968e+02
3.372628e+02
3.425094e+02
3.473734e+02
3.520511e+02
3.561622e+02
3.610934e+02
3.676394e+02
3.745705e+02
3.821447e+02
3.899923e+02
3.967727e+02
4.025058e+02
4.074830e+02
4.124202e+02
4.182604e+02
4.237600e+02
4.294089e+02
4.346610e+02
4.387072e+02
4.418916e+02
4.443836e+02
4.460122e+02
4.471060e+02
4.484227e+02
4.506373e+02
4.539888e+02
4.584124e+02
4.625087e+02
4.659599e+02
4.691205e+02
4.718414e+02
4.741574e+02
4.748204e+02
4.742693e+02
4.723597e+02
4.692532e+02
4.653659e+02
4.606498e+02
4.560041e+02
4.514094e+02
4.468962e+02
4.428668e+02
4.399416e+02
4.385981e+02
4.363189e+02
4.341861e+02
4.318013e+02
4.299410e+02
4.279750e+02
4.260328e+02
4.239239e+02
4.195353e+02
4.156958e+02
4.127702e+02
4.096488e+02
4.056990e+02
4.026713e+02
3.999609e+02
3.971162e+02
3.938799e+02
3.903518e+02
3.863995e+02
3.817329e+02
3.771577e+02
3.718114e+02
3.655454e+02
3.585337e+02
3.507069e+02
3.431966e+02
3.348138e+02
3.240336e+02
3.127270e+02
3.008693e+02
2.893109e+02
2.787506e+02
2.684698e+02
2.587177e+02
2.507186e+02
2.440202e+02
2.376001e+02
2.313264e+02
2.267469e+02
2.236683e+02
2.206526e+02
2.175804e+02
2.141936e+02
2.098646e+02
2.052111e+02
2.010143e+02
2.030560e+02
2.322015e+02
2.771647e+02
2.849757e+02
2.478480e+02
2.026509e+02
1.909502e+02
2.591738e+02
2.024677e+01
1.125271e+01
5.478473e+00
4.191868e+00
4.623300e+00
5.304778e+00
6.154932e+00
7.216763e+00
8.539954e+00
9.975220e+00
1.154804e+01
1.345189e+01
1.534321e+01
1.743872e+01
1.957806e+01
2.187565e+01
2.438849e+01
2.704755e+01
2.975894e+01
3.267167e+01
3.583258e+01
3.928739e+01
4.269006e+01
4.610889e+01
4.953058e+01
5.314683e+01
5.690031e+01
6.097349e+01
6.585019e+01
7.120107e+01
7.673852e+01
8.246913e+01
8.809261e+01
9.366914e+01
9.940574e+01
1.050992e+02
1.107138e+02
1.164473e+02
1.223274e+02
1.281377e+02
1.334433e+02
1.388393e+02
1.441752e+02
1.494913e+02
1.548099e+02
1.602069e+02
1.656440e+02
1.708594e+02
1.765556e+02
1.825646e+02
1.890591e+02
1.952575e+02
2.016111e+02
2.083428e+02
2.160837e+02
2.236732e+02
2.306463e+02
2.369983e+02
2.429018e+02
2.486088e+02
2.539587e+02
2.591382e+02
2.643661e+02
2.693632e+02
2.741451e+02
2.791743e+02
2.844328e+02
2.898101e+02
2.959086e+02
3.017052e+02
3.071571e+02
3.128717e+02
3.181806e+02
3.236076e+02
3.287554e+02
3.341888e+02
3.405711e+02
3.467573e+02
3.529143e+02
3.592000e+02
3.663446e+02
3.730306e+02
3.788535e+02
3.839743e+02
3.891724e+02
3.937780e+02
3.986300e+02
4.040783e+02
4.104188e+02
4.175753e+02
4.254519e+02
4.340963e+02
4.425260e+02
4.505063e+02
4.576562e+02
4.638951e+02
4.697696e+02
4.751051e+02
4.787547e+02
4.815001e+02
4.841639e+02
4.868448e+02
4.893473e+02
4.926688e+02
4.960459e+02
4.995791e+02
5.027840e+02
5.064531e+02
5.103307e+02
5.137661e+02
5.175211e+02
5.221520e+02
5.262890e+02
5.294314e+02
5.317041e+02
5.329430e+02
5.326477e+02
5.295182e+02
5.253959e+02
5.207979e+02
5.159872e+02
5.118229e+02
5.084648e+02
5.046402e+02
5.000544e+02
4.947559e+02
4.898227e+02
4.854507e+02
4.814345e+02
4.781427e+02
4.766745e+02
4.755908e+02
4.737106e+02
4.708617e+02
4.668619e+02
4.626744e+02
4.583954e+02
4.544904e+02
4.496702e+02
4.446236e+02
4.390029e+02
4.332115e+02
4.290203e+02
4.245309e+02
4.194698e+02
4.131170e+02
4.052897e+02
3.966998e+02
3.871132e+02
3.787484e+02
3.702314e+02
3.617997e+02
3.529721e+02
3.426986e+02
3.307333e+02
3.187131e+02
3.076895e+02
2.972543e+02
2.865868e+02
2.767739e+02
2.675931e+02
2.592445e+02
2.525782e+02
2.469588e+02
2.416228e+02
2.362937e+02
2.313152e+02
2.269463e+02
2.221577e+02
2.173578e+02
2.128969e+02
2.091867e+02
2.100734e+02
2.368061e+02
2.919245e+02
2.954273e+02
2.504754e+02
2.040881e+02
1.930452e+02
4.219442e+02
5.834648e+01
3.789180e+01
3.402759e+01
3.593147e+01
3.783434e+01
3.977250e+01
4.171246e+01
4.370840e+01
4.577264e+01
4.776795e+01
4.979106e+01
5.188875e+01
5.406553e+01
5.651856e+01
5.915385e+01
6.182133e+01
6.460705e+01
6.755195e+01
7.065635e+01
7.403766e+01
7.753010e+01
8.100702e+01
8.482600e+01
8.888662e+01
9.347662e+01
9.836723e+01
1.037259e+02
1.096372e+02
1.155443e+02
1.217298e+02
1.282106e+02
1.345488e+02