/*--------------------------------*- C++ -*----------------------------------*\
| =========                 |                                                 |
| \\      /  F ield         | OpenFOAM: The Open Source CFD Toolbox           |
|  \\    /   O peration     | Version:  v2406                                 |
|   \\  /    A nd           | Website:  www.openfoam.com                      |
|    \\/     M anipulation  |                                                 |
\*---------------------------------------------------------------------------*/
FoamFile
{
    version     2.0;
    format      ascii;
    class       volScalarField;
    location    "predicted";
    object      k;
}
// * * * * * * * * * * * * * * * * * * * * * * * * * * * * * * * * * * * * * //

dimensions      [0 2 -2 0 0 0 0];

internalField   nonuniform List<scalar>
49181
(
1.111194e+00
1.464963e+00
1.338766e+00
1.447504e+00
1.476962e+00
1.500485e+00
1.520994e+00
1.539384e+00
1.546687e+00
1.562010e+00
1.551602e+00
1.549111e+00
1.548530e+00
1.531182e+00
1.506554e+00
1.464579e+00
1.590889e+00
1.317443e+00
1.443326e+00
7.480997e-01
7.789166e-01
8.767159e-01
9.180222e-01
9.659709e-01
1.012067e+00
1.064125e+00
1.123077e+00
1.180121e+00
1.225617e+00
1.253288e+00
1.231974e+00
1.153311e+00
1.060146e+00
9.946323e-01
1.049614e+00
1.272164e+00
1.260128e+00
7.048698e-01
5.787322e-01
5.564888e-01
5.728053e-01
6.045590e-01
6.373602e-01
6.801819e-01
7.414685e-01
8.091883e-01
8.591363e-01
8.847656e-01
8.673705e-01
7.662237e-01
6.529572e-01
5.963340e-01
5.995580e-01
6.987495e-01
1.339060e+00
6.725031e-01
4.869761e-01
4.454575e-01
4.435116e-01
4.570345e-01
4.720980e-01
4.920584e-01
5.155065e-01
5.466163e-01
5.613950e-01
5.882018e-01
5.810752e-01
5.147648e-01
4.581018e-01
4.267576e-01
4.301032e-01
4.614578e-01
1.339754e+00
6.063599e-01
4.353857e-01
3.848616e-01
3.784265e-01
3.836148e-01
3.892673e-01
3.965063e-01
4.058192e-01
4.146327e-01
4.231975e-01
4.339410e-01
4.348301e-01
4.036619e-01
3.773495e-01
3.615726e-01
3.633766e-01
3.742158e-01
1.333429e+00
5.666033e-01
4.231274e-01
3.698008e-01
3.533354e-01
3.510219e-01
3.487449e-01
3.461821e-01
3.436076e-01
3.441755e-01
3.459316e-01
3.517116e-01
3.585399e-01
3.462539e-01
3.444670e-01
3.406766e-01
3.413058e-01
3.316347e-01
1.320023e+00
5.319129e-01
4.223998e-01
3.689201e-01
3.454139e-01
3.369260e-01
3.297441e-01
3.240383e-01
3.201133e-01
3.162587e-01
3.137558e-01
3.163525e-01
3.255442e-01
3.227479e-01
3.294052e-01
3.326506e-01
3.323842e-01
3.119360e-01
1.294033e+00
5.075743e-01
4.213057e-01
3.651200e-01
3.394432e-01
3.312726e-01
3.241564e-01
3.177476e-01
3.120877e-01
3.077301e-01
3.043089e-01
3.049722e-01
3.138736e-01
3.150688e-01
3.257554e-01
3.286232e-01
3.286276e-01
3.099720e-01
1.258886e+00
4.817210e-01
4.257235e-01
3.666797e-01
3.420646e-01
3.338626e-01
3.281828e-01
3.218478e-01
3.162960e-01
3.112909e-01
3.066786e-01
3.057586e-01
3.138083e-01
3.187710e-01
3.298329e-01
3.330951e-01
3.338299e-01
3.159145e-01
1.216454e+00
4.636991e-01
4.271599e-01
3.722869e-01
3.485062e-01
3.399367e-01
3.342333e-01
3.288731e-01
3.241776e-01
3.185820e-01
3.135516e-01
3.122635e-01
3.196294e-01
3.265811e-01
3.367662e-01
3.415035e-01
3.424779e-01
3.265409e-01
1.174335e+00
4.531063e-01
4.225911e-01
3.747559e-01
3.577379e-01
3.504036e-01
3.444037e-01
3.394481e-01
3.342441e-01
3.295394e-01
3.250351e-01
3.235632e-01
3.309897e-01
3.363033e-01
3.465916e-01
3.486932e-01
3.502270e-01
3.364046e-01
1.130167e+00
4.506037e-01
4.195309e-01
3.745157e-01
3.582078e-01
3.540692e-01
3.502679e-01
3.458842e-01
3.421230e-01
3.381172e-01
3.342932e-01
3.337635e-01
3.416612e-01
3.437372e-01
3.507879e-01
3.494535e-01
3.513476e-01
3.411717e-01
1.089597e+00
4.481655e-01
4.171702e-01
3.752868e-01
3.598906e-01
3.560325e-01
3.532134e-01
3.509734e-01
3.475805e-01
3.440123e-01
3.410135e-01
3.407965e-01
3.480771e-01
3.492934e-01
3.526061e-01
3.511167e-01
3.533438e-01
3.441758e-01
1.052974e+00
4.453743e-01
4.157252e-01
3.767637e-01
3.614092e-01
3.576262e-01
3.555195e-01
3.530827e-01
3.508647e-01
3.489321e-01
3.458075e-01
3.456328e-01
3.530083e-01
3.520878e-01
3.539801e-01
3.510667e-01
3.529919e-01
3.455983e-01
1.018418e+00
4.404921e-01
4.143659e-01
3.768060e-01
3.623916e-01
3.581329e-01
3.557526e-01
3.537378e-01
3.519713e-01
3.502382e-01
3.494960e-01
3.513094e-01
3.575607e-01
3.536474e-01
3.542978e-01
3.516525e-01
3.533556e-01
3.455173e-01
9.863504e-01
4.356699e-01
4.114613e-01
3.780140e-01
3.639705e-01
3.597076e-01
3.574781e-01
3.555600e-01
3.538947e-01
3.525181e-01
3.514477e-01
3.534089e-01
3.597898e-01
3.552905e-01
3.554476e-01
3.535579e-01
3.552299e-01
3.467463e-01
9.585590e-01
4.336722e-01
4.090921e-01
3.783714e-01
3.680234e-01
3.635805e-01
3.609699e-01
3.589198e-01
3.572865e-01
3.559343e-01
3.552404e-01
3.571202e-01
3.633493e-01
3.588560e-01
3.603995e-01
3.578732e-01
3.602795e-01
3.514375e-01
9.287122e-01
4.307400e-01
4.083645e-01
3.787987e-01
3.704186e-01
3.688353e-01
3.676899e-01
3.659790e-01
3.645263e-01
3.628758e-01
3.617057e-01
3.635543e-01
3.698620e-01
3.663661e-01
3.665376e-01
3.587237e-01
3.621772e-01
3.584492e-01
9.116172e-01
4.224982e-01
4.047652e-01
3.750919e-01
3.655194e-01
3.672671e-01
3.692498e-01
3.705155e-01
3.703295e-01
3.691909e-01
3.680404e-01
3.697354e-01
3.761397e-01
3.713286e-01
3.639883e-01
3.548307e-01
3.579840e-01
3.586735e-01
9.581403e-01
4.148173e-01
3.894270e-01
3.632429e-01
3.546869e-01
3.565816e-01
3.594007e-01
3.612022e-01
3.621917e-01
3.615467e-01
3.613219e-01
3.637339e-01
3.700148e-01
3.629465e-01
3.548785e-01
3.463274e-01
3.479737e-01
3.476456e-01
1.065516e+00
4.316739e-01
3.827051e-01
3.591811e-01
3.541561e-01
3.557874e-01
3.566463e-01
3.559308e-01
3.546464e-01
3.532707e-01
3.526466e-01
3.550011e-01
3.623254e-01
3.572082e-01
3.526496e-01
3.449059e-01
3.453487e-01
3.562894e-01
1.397065e+00
5.115275e-01
4.106521e-01
3.906466e-01
3.817686e-01
3.784726e-01
3.762021e-01
3.742733e-01
3.725719e-01
3.710097e-01
3.704545e-01
3.730876e-01
3.795325e-01
3.719163e-01
3.727233e-01
3.715941e-01
3.800698e-01
3.876846e-01
1.481285e+00
5.104075e-01
3.995222e-01
3.780544e-01
3.696503e-01
3.667582e-01
3.644551e-01
3.625410e-01
3.606601e-01
3.589845e-01
3.580832e-01
3.602883e-01
3.673889e-01
3.595085e-01
3.588317e-01
3.575539e-01
3.655124e-01
3.819773e-01
1.506203e+00
4.987309e-01
3.878808e-01
3.685670e-01
3.608197e-01
3.579228e-01
3.555464e-01
3.536152e-01
3.517272e-01
3.502219e-01
3.498942e-01
3.525665e-01
3.594583e-01
3.507713e-01
3.505715e-01
3.484655e-01
3.549776e-01
3.687847e-01
1.501631e+00
4.844794e-01
3.827494e-01
3.669863e-01
3.596972e-01
3.570020e-01
3.545928e-01
3.525288e-01
3.509886e-01
3.493151e-01
3.488117e-01
3.520027e-01
3.588256e-01
3.502202e-01
3.494354e-01
3.470241e-01
3.526516e-01
3.654124e-01
1.501978e+00
4.734928e-01
3.809510e-01
3.684970e-01
3.613319e-01
3.588293e-01
3.567461e-01
3.549349e-01
3.533575e-01
3.517787e-01
3.508677e-01
3.537637e-01
3.609518e-01
3.514145e-01
3.506226e-01
3.480529e-01
3.530169e-01
3.657792e-01
1.516516e+00
4.879308e-01
3.906638e-01
3.789345e-01
3.725988e-01
3.695344e-01
3.674253e-01
3.655496e-01
3.633616e-01
3.610644e-01
3.595804e-01
3.622234e-01
3.681590e-01
3.584319e-01
3.571000e-01
3.548850e-01
3.593508e-01
3.730349e-01
1.530822e+00
5.290720e-01
4.317692e-01
4.065815e-01
4.022270e-01
3.999764e-01
3.989023e-01
3.967030e-01
3.921152e-01
3.855280e-01
3.787729e-01
3.777943e-01
3.852586e-01
3.754632e-01
3.747157e-01
3.642490e-01
3.782752e-01
3.938922e-01
1.550112e+00
5.633041e-01
4.893178e-01
4.463075e-01
4.325840e-01
4.350094e-01
4.351694e-01
4.348399e-01
4.336527e-01
4.507977e-01
4.742184e-01
4.948204e-01
4.889821e-01
4.612510e-01
4.333194e-01
4.290372e-01
4.556083e-01
5.137473e-01
1.169841e+00
1.335759e+00
1.074094e+00
1.055476e+00
1.081274e+00
1.111055e+00
1.139921e+00
1.173214e+00
1.233028e+00
1.360996e+00
1.450805e+00
1.486329e+00
1.486897e+00
1.481059e+00
1.470876e+00
1.483729e+00
1.481985e+00
1.513767e+00
-1.067496e-01
2.749253e-01
3.356889e-01
2.851500e-01
2.917666e-01
2.965838e-01
3.012990e-01
3.058782e-01
3.102777e-01
3.147238e-01
3.192604e-01
3.238816e-01
3.286106e-01
3.333878e-01
3.382393e-01
3.432830e-01
3.479600e-01
3.524111e-01
3.564178e-01
3.601643e-01
3.640482e-01
3.682343e-01
3.725676e-01
3.768318e-01
3.808838e-01
3.850780e-01
3.894335e-01
3.937252e-01
3.977663e-01
4.017297e-01
4.056702e-01
4.096834e-01
4.136783e-01
4.178493e-01
4.219105e-01
4.263609e-01
4.315455e-01
4.372464e-01
4.422122e-01
4.461671e-01
4.500595e-01
4.544265e-01
4.584763e-01
4.624495e-01
4.657624e-01
4.689437e-01
4.718818e-01
4.749950e-01
4.792952e-01
4.841584e-01
4.890111e-01
4.940294e-01
4.990172e-01
5.042033e-01
5.098702e-01
5.165616e-01
5.238644e-01
5.309689e-01
5.379861e-01
5.449838e-01
5.510776e-01
5.580700e-01
5.659939e-01
5.742645e-01
5.830948e-01
5.930863e-01
6.039619e-01
6.140501e-01
6.243057e-01
6.348636e-01
6.457873e-01
6.579994e-01
6.710654e-01
6.842228e-01
6.970888e-01
7.096302e-01
7.244412e-01
7.392542e-01
7.533561e-01
7.659007e-01
7.773395e-01
7.903232e-01
8.033674e-01
8.146473e-01
8.258772e-01
8.380148e-01
8.501859e-01
8.628897e-01
8.767358e-01
8.889732e-01
9.008267e-01
9.117888e-01
9.214792e-01
9.298747e-01
9.362697e-01
9.418151e-01
9.458197e-01
9.488926e-01
9.528488e-01
9.569461e-01
9.610142e-01
9.637558e-01
9.639426e-01
9.622805e-01
9.581240e-01
9.525510e-01
9.461048e-01
9.391117e-01
9.289059e-01
9.180713e-01
9.063012e-01
8.947840e-01
8.859283e-01
8.781550e-01
8.736779e-01
8.727101e-01
8.712435e-01
8.678524e-01
8.659949e-01
8.627634e-01
8.608909e-01
8.585972e-01
8.565794e-01
8.549269e-01
8.514978e-01
8.522284e-01
8.505675e-01
8.496272e-01
8.473673e-01
8.447186e-01
8.412168e-01
8.395465e-01
8.393086e-01
8.369486e-01
8.337236e-01
8.327897e-01
8.332702e-01
8.339579e-01
8.364385e-01
8.389831e-01
8.404714e-01
8.428739e-01
8.477090e-01
8.554792e-01
8.644743e-01
8.722691e-01
8.787657e-01
8.870074e-01
8.952019e-01
8.980276e-01
9.028866e-01
9.114561e-01
9.186668e-01
9.258583e-01
9.322442e-01
9.355980e-01
9.362113e-01
9.357081e-01
9.335216e-01
9.306276e-01
9.271112e-01
9.220031e-01
9.192003e-01
9.171167e-01
9.150677e-01
9.134725e-01
9.118019e-01
9.097589e-01
9.074105e-01
9.040088e-01
8.991557e-01
8.950635e-01
9.012558e-01
9.292358e-01
9.297757e-01
9.822553e-01
9.334449e-01
9.515309e-01
9.927098e-01
1.199644e+00
2.743847e-01
1.184725e-01
6.681781e-02
1.081553e-01
1.171644e-01
1.239904e-01
1.314168e-01
1.389889e-01
1.467100e-01
1.548232e-01
1.630160e-01
1.712461e-01
1.796179e-01
1.880280e-01
1.961612e-01
2.042682e-01
2.125079e-01
2.205379e-01
2.286484e-01
2.365973e-01
2.443080e-01
2.519706e-01
2.596585e-01
2.671178e-01
2.735189e-01
2.798269e-01
2.860635e-01
2.923349e-01
2.986557e-01
3.048852e-01
3.109812e-01
3.170987e-01
3.232356e-01
3.295196e-01
3.361031e-01
3.428922e-01
3.498782e-01
3.572592e-01
3.649474e-01
3.726511e-01
3.804778e-01
3.884544e-01
3.966264e-01
4.050289e-01
4.138854e-01
4.232182e-01
4.323953e-01
4.412907e-01
4.497387e-01
4.589524e-01
4.691298e-01
4.796041e-01
4.901969e-01
5.010228e-01
5.108748e-01
5.207348e-01
5.309644e-01
5.419422e-01
5.537245e-01
5.666638e-01
5.803237e-01
5.935405e-01
6.073755e-01
6.215952e-01
6.361647e-01
6.508712e-01
6.652370e-01
6.789257e-01
6.923580e-01
7.058283e-01
7.186323e-01
7.317124e-01
7.466159e-01
7.625679e-01
7.790143e-01
7.935209e-01
8.079790e-01
8.247876e-01
8.421833e-01
8.600769e-01
8.793684e-01
9.002502e-01
9.214689e-01
9.430596e-01
9.656893e-01
9.884816e-01
1.010730e+00
1.033786e+00
1.056412e+00
1.079047e+00
1.102377e+00
1.125004e+00
1.148268e+00
1.171520e+00
1.193558e+00
1.215080e+00
1.236194e+00
1.257253e+00
1.277330e+00
1.298006e+00
1.320878e+00
1.343203e+00
1.363936e+00
1.383057e+00
1.401075e+00
1.419304e+00
1.440302e+00
1.462522e+00
1.485044e+00
1.507053e+00
1.525986e+00
1.538643e+00
1.546803e+00
1.550288e+00
1.551016e+00
1.549718e+00
1.547566e+00
1.548986e+00
1.548952e+00
1.548810e+00
1.544783e+00
1.542708e+00
1.537724e+00
1.532133e+00
1.528634e+00
1.527325e+00
1.523827e+00
1.520333e+00
1.517632e+00
1.513167e+00
1.509174e+00
1.503996e+00
1.499509e+00
1.494944e+00
1.490604e+00
1.489842e+00
1.490496e+00
1.490278e+00
1.489079e+00
1.481691e+00
1.473935e+00
1.464048e+00
1.450907e+00
1.437176e+00
1.421774e+00
1.406651e+00
1.391871e+00
1.377015e+00
1.363563e+00
1.349915e+00
1.341575e+00
1.334888e+00
1.329316e+00
1.322649e+00
1.313649e+00
1.298278e+00
1.280833e+00
1.267272e+00
1.252201e+00
1.236286e+00
1.219510e+00
1.200350e+00
1.181195e+00
1.162644e+00
1.145050e+00
1.128365e+00
1.112550e+00
1.094940e+00
1.075676e+00
1.056461e+00
1.038917e+00
1.025821e+00
1.026315e+00
1.067255e+00
1.245311e+00
1.448278e+00
1.641778e+00
1.856989e+00
1.901343e+00
1.943711e+00
3.538154e-01
9.463890e-02
1.620186e-01
1.781493e-01
1.809442e-01
1.875989e-01
1.952081e-01
2.029766e-01
2.107736e-01
2.184964e-01
2.261896e-01
2.342962e-01
2.427368e-01
2.514993e-01
2.602662e-01
2.689927e-01
2.778265e-01
2.868978e-01
2.957954e-01
3.045830e-01
3.132015e-01
3.218739e-01
3.307918e-01
3.398607e-01
3.490107e-01
3.585179e-01
3.683485e-01
3.781205e-01
3.877422e-01
3.972132e-01
4.068231e-01
4.157988e-01
4.245255e-01
4.340553e-01
4.446352e-01
4.553239e-01
4.663995e-01
4.773805e-01
4.884106e-01
4.990669e-01
5.097158e-01
5.202202e-01
5.310159e-01
5.419476e-01
5.528023e-01
5.638213e-01
5.752351e-01
5.872149e-01
5.999175e-01
6.137196e-01
6.274286e-01
6.418492e-01
6.569314e-01
6.722244e-01
6.877010e-01
7.039105e-01
7.211189e-01
7.400837e-01
7.640193e-01
7.895302e-01
8.149728e-01
8.397549e-01
8.649008e-01
8.898499e-01
9.157295e-01
9.419494e-01
9.707317e-01
9.995594e-01
1.027641e+00
1.054941e+00
1.082612e+00
1.110124e+00
1.136988e+00
1.163132e+00
1.190263e+00
1.218067e+00
1.245664e+00
1.273941e+00
1.303519e+00
1.333527e+00
1.364268e+00
1.394381e+00
1.423499e+00
1.452016e+00
1.480494e+00
1.510086e+00
1.539363e+00
1.567766e+00
1.593419e+00
1.619381e+00
1.645146e+00
1.669560e+00
1.693862e+00
1.718626e+00
1.745744e+00
1.771948e+00
1.798530e+00
1.829300e+00
1.859105e+00
1.890499e+00
1.922993e+00
1.954519e+00
1.985096e+00
2.015548e+00
2.044871e+00
2.072672e+00
2.098583e+00
2.124111e+00
2.148181e+00
2.171629e+00
2.193931e+00
2.209995e+00
2.217457e+00
2.219171e+00
2.217445e+00
2.212659e+00
2.207316e+00
2.203812e+00
2.200403e+00
2.197590e+00
2.197102e+00
2.199431e+00
2.203474e+00
2.210940e+00
2.220833e+00
2.230288e+00
2.239814e+00
2.250241e+00
2.262351e+00
2.273384e+00
2.280415e+00
2.283683e+00
2.285266e+00
2.290915e+00
2.294441e+00
2.295165e+00
2.296449e+00
2.294743e+00
2.288409e+00
2.280005e+00
2.269228e+00
2.256156e+00
2.237691e+00
2.215200e+00
2.188439e+00
2.160756e+00
2.131311e+00
2.096224e+00
2.059744e+00
2.023377e+00
1.987242e+00
1.950763e+00
1.915610e+00
1.880396e+00
1.844760e+00
1.816860e+00
1.793550e+00
1.771027e+00
1.746664e+00
1.725307e+00
1.706342e+00
1.689416e+00
1.672471e+00
1.655381e+00
1.639540e+00
1.626066e+00
1.611444e+00
1.596942e+00
1.581734e+00
1.566641e+00
1.551758e+00
1.538796e+00
1.541496e+00
1.604894e+00
1.764801e+00
2.080590e+00
2.397833e+00
2.540229e+00
2.500620e+00
2.625317e+00
2.943919e-01
1.441609e-01
1.867056e-01
2.061130e-01
2.119086e-01
2.188253e-01
2.268329e-01
2.350734e-01
2.433407e-01
2.516025e-01
2.598113e-01
2.682325e-01
2.769441e-01
2.858378e-01
2.947010e-01
3.035583e-01
3.126514e-01
3.223630e-01
3.324750e-01
3.427091e-01
3.536068e-01
3.645072e-01
3.751250e-01
3.860814e-01
3.973054e-01
4.093569e-01
4.218294e-01
4.344811e-01
4.470934e-01
4.595938e-01
4.722262e-01
4.850181e-01
4.976617e-01
5.104127e-01
5.232849e-01
5.371311e-01
5.508726e-01
5.644695e-01
5.780237e-01
5.916243e-01
6.050213e-01
6.176034e-01
6.302042e-01
6.429183e-01
6.563317e-01
6.698324e-01
6.835686e-01
6.991859e-01
7.156930e-01
7.328211e-01
7.525653e-01
7.756168e-01
8.002853e-01
8.269899e-01
8.566626e-01
8.883439e-01
9.206239e-01
9.541632e-01
9.872841e-01
1.020208e+00
1.051644e+00
1.083759e+00
1.116310e+00
1.150995e+00
1.186725e+00
1.223909e+00
1.261581e+00
1.299179e+00
1.335929e+00
1.372651e+00
1.410328e+00
1.448537e+00
1.485973e+00
1.522517e+00
1.558751e+00
1.597220e+00
1.634076e+00
1.670451e+00
1.707980e+00
1.746893e+00
1.786607e+00
1.823619e+00
1.859996e+00
1.896160e+00
1.934448e+00
1.973986e+00
2.011509e+00
2.047150e+00
2.078054e+00
2.107440e+00
2.135897e+00
2.166313e+00
2.196578e+00
2.227415e+00
2.262286e+00
2.299800e+00
2.339941e+00
2.380859e+00
2.422126e+00
2.462293e+00
2.502950e+00
2.547511e+00
2.592193e+00
2.639564e+00
2.683344e+00
2.719382e+00
2.749459e+00
2.777417e+00
2.801675e+00
2.829635e+00
2.860806e+00
2.888670e+00
2.911510e+00
2.927475e+00
2.937178e+00
2.940975e+00
2.941868e+00
2.943793e+00
2.944973e+00
2.942510e+00
2.938004e+00
2.935861e+00
2.933990e+00
2.934204e+00
2.937493e+00
2.943070e+00
2.951007e+00
2.961316e+00
2.972746e+00
2.984868e+00
2.995089e+00
3.004734e+00
3.016636e+00
3.030396e+00
3.042108e+00
3.051423e+00
3.058589e+00
3.062971e+00
3.066348e+00
3.067516e+00
3.066106e+00
3.064070e+00
3.059955e+00
3.051772e+00
3.036572e+00
3.012701e+00
2.983652e+00
2.951150e+00
2.922095e+00
2.891213e+00
2.860267e+00
2.826933e+00
2.789269e+00
2.749731e+00
2.710732e+00
2.669928e+00
2.624361e+00
2.577265e+00
2.528291e+00
2.478232e+00
2.425968e+00
2.377775e+00
2.336348e+00
2.298595e+00
2.263405e+00
2.236971e+00
2.213460e+00
2.188151e+00
2.165371e+00
2.145817e+00
2.125778e+00
2.107492e+00
2.102057e+00
2.173474e+00
2.435337e+00
2.745777e+00
2.990192e+00
2.991300e+00
2.853652e+00
3.063775e+00
2.820101e-01
1.574177e-01
1.998541e-01
2.254657e-01
2.311202e-01
2.377006e-01
2.449874e-01
2.524102e-01
2.599235e-01
2.674185e-01
2.752692e-01
2.841651e-01
2.934432e-01
3.027293e-01
3.123052e-01
3.222330e-01
3.324678e-01
3.430001e-01
3.542448e-01
3.652266e-01
3.763162e-01
3.876432e-01
3.994130e-01
4.125965e-01
4.253234e-01
4.381843e-01
4.515221e-01
4.650013e-01
4.785600e-01
4.918267e-01
5.057131e-01
5.195138e-01
5.335331e-01
5.475319e-01
5.613245e-01
5.751555e-01
5.892811e-01
6.034898e-01
6.171882e-01
6.303723e-01
6.440778e-01
6.592845e-01
6.750385e-01
6.913778e-01
7.082510e-01
7.275175e-01
7.486554e-01
7.702105e-01
7.956533e-01
8.228638e-01
8.525386e-01
8.847858e-01
9.189444e-01
9.545587e-01
9.915243e-01
1.028080e+00
1.063892e+00
1.098971e+00
1.134012e+00
1.169493e+00
1.206095e+00
1.245793e+00
1.285799e+00
1.325522e+00
1.366220e+00
1.407521e+00
1.450087e+00
1.494237e+00
1.536979e+00
1.579328e+00
1.621952e+00
1.664234e+00
1.706291e+00
1.747161e+00
1.786594e+00
1.830247e+00
1.873619e+00
1.915333e+00
1.957455e+00
1.999761e+00
2.040550e+00
2.081422e+00
2.122679e+00
2.160545e+00
2.197246e+00
2.236192e+00
2.273246e+00
2.307772e+00
2.340380e+00
2.373938e+00
2.407123e+00
2.441880e+00
2.477173e+00
2.513177e+00
2.550057e+00
2.590274e+00
2.635381e+00
2.683480e+00
2.734919e+00
2.787799e+00
2.841601e+00
2.898774e+00
2.955170e+00
3.006100e+00
3.054089e+00
3.097299e+00
3.131604e+00
3.162301e+00
3.193523e+00
3.231515e+00
3.270388e+00
3.305262e+00
3.337278e+00
3.361818e+00
3.375704e+00
3.383982e+00
3.386189e+00
3.386179e+00
3.384800e+00
3.385134e+00
3.383520e+00
3.378297e+00
3.370892e+00
3.369379e+00
3.372323e+00
3.382135e+00
3.395918e+00
3.410391e+00
3.424729e+00
3.436367e+00
3.444160e+00
3.450135e+00
3.451436e+00
3.453805e+00
3.461955e+00
3.471100e+00
3.479489e+00
3.488681e+00
3.492206e+00
3.491979e+00
3.486117e+00
3.472766e+00
3.457252e+00
3.445237e+00
3.433596e+00
3.420088e+00
3.401377e+00
3.380085e+00
3.354428e+00
3.325772e+00
3.296293e+00
3.263740e+00
3.226677e+00
3.189847e+00
3.153285e+00
3.110819e+00
3.059736e+00
3.002501e+00
2.947801e+00
2.897987e+00
2.850145e+00
2.806609e+00
2.763748e+00
2.724137e+00
2.681094e+00
2.641601e+00
2.607780e+00
2.580574e+00
2.556392e+00
2.532064e+00
2.507738e+00
2.484212e+00
2.469084e+00
2.532109e+00
2.804959e+00
3.091152e+00
3.232256e+00
3.172759e+00
3.008160e+00
3.273539e+00
2.727263e-01
1.780443e-01
2.217566e-01
2.435819e-01
2.472708e-01
2.535492e-01
2.606450e-01
2.680043e-01
2.757953e-01
2.841512e-01
2.927790e-01
3.018003e-01
3.116947e-01
3.217572e-01
3.323660e-01
3.432319e-01
3.541964e-01
3.654062e-01
3.767306e-01
3.877466e-01
3.997371e-01
4.114206e-01
4.234516e-01
4.357731e-01
4.484367e-01
4.614851e-01
4.747079e-01
4.879621e-01
5.014720e-01
5.151378e-01
5.288144e-01
5.428144e-01
5.567625e-01
5.707005e-01
5.849015e-01
5.996406e-01
6.152132e-01
6.309349e-01
6.472748e-01
6.657833e-01
6.852032e-01
7.068934e-01
7.294847e-01
7.517980e-01
7.749405e-01
8.014645e-01
8.285922e-01
8.579722e-01
8.907657e-01
9.239844e-01
9.623225e-01
1.001063e+00
1.038852e+00
1.076419e+00
1.112608e+00
1.149365e+00
1.187009e+00
1.225515e+00
1.264487e+00
1.305187e+00
1.345901e+00
1.387575e+00
1.430718e+00
1.474985e+00
1.519567e+00
1.565149e+00
1.611834e+00
1.658015e+00
1.702186e+00
1.745730e+00
1.789186e+00
1.831030e+00
1.874785e+00
1.919687e+00
1.964602e+00
2.010888e+00
2.055726e+00
2.099254e+00
2.142017e+00
2.182132e+00
2.218391e+00
2.256008e+00
2.297081e+00
2.339231e+00
2.381425e+00
2.423919e+00
2.465745e+00
2.507871e+00
2.550320e+00
2.592230e+00
2.633081e+00
2.672887e+00
2.714384e+00
2.758067e+00
2.804204e+00
2.852109e+00
2.904075e+00
2.956639e+00
3.010051e+00
3.072640e+00
3.141434e+00
3.212331e+00
3.279991e+00
3.342503e+00
3.392203e+00
3.430803e+00
3.460633e+00
3.489464e+00
3.522717e+00
3.562173e+00
3.601394e+00
3.637250e+00
3.669632e+00
3.697327e+00
3.720045e+00
3.735957e+00
3.744257e+00
3.748473e+00
3.752348e+00
3.753842e+00
3.754769e+00
3.753494e+00
3.748818e+00
3.744392e+00
3.746178e+00
3.751930e+00
3.762135e+00
3.778620e+00
3.791118e+00
3.802656e+00
3.812716e+00
3.821340e+00
3.823251e+00
3.822310e+00
3.826586e+00
3.833617e+00
3.840994e+00
3.846862e+00
3.848110e+00
3.841692e+00
3.830663e+00
3.812423e+00
3.788570e+00
3.764429e+00
3.748504e+00
3.733109e+00
3.714417e+00
3.686620e+00
3.655308e+00
3.619164e+00
3.585516e+00
3.548638e+00
3.509027e+00
3.467454e+00
3.422393e+00
3.375624e+00
3.325623e+00
3.270783e+00
3.218035e+00
3.170921e+00
3.118539e+00
3.072542e+00
3.030470e+00
2.985768e+00
2.943200e+00
2.903461e+00
2.870610e+00
2.841898e+00
2.813441e+00
2.783698e+00
2.753162e+00
2.723087e+00
2.702602e+00
2.765857e+00
3.036589e+00
3.299140e+00
3.413425e+00
3.273445e+00
3.093605e+00
3.398768e+00
2.689605e-01
2.013360e-01
2.488488e-01
2.643816e-01
2.682356e-01
2.751730e-01
2.832860e-01
2.917551e-01
3.004583e-01
3.095672e-01
3.193071e-01
3.294222e-01
3.397903e-01
3.503619e-01
3.608645e-01
3.714230e-01
3.817212e-01
3.923156e-01
4.025755e-01
4.129226e-01
4.233891e-01
4.346865e-01
4.471870e-01
4.600833e-01
4.733228e-01
4.869950e-01
5.011264e-01
5.155037e-01
5.300756e-01
5.450607e-01
5.603838e-01
5.763794e-01
5.927424e-01
6.087735e-01
6.251200e-01
6.419912e-01
6.602057e-01
6.798502e-01
7.022539e-01
7.247973e-01
7.480741e-01
7.734004e-01
8.015180e-01
8.307832e-01
8.622948e-01
8.943274e-01
9.279727e-01
9.639612e-01
1.001138e+00
1.039075e+00
1.076419e+00
1.114682e+00
1.153846e+00
1.190391e+00
1.228165e+00
1.267709e+00
1.308950e+00
1.350852e+00
1.394536e+00
1.440221e+00
1.485126e+00
1.529862e+00
1.575219e+00
1.620821e+00
1.666267e+00
1.712549e+00
1.757330e+00
1.800893e+00
1.843929e+00
1.886950e+00
1.932809e+00
1.979686e+00
2.026449e+00
2.074436e+00
2.121735e+00
2.168103e+00
2.213081e+00
2.257831e+00
2.300893e+00
2.342844e+00
2.385742e+00
2.427201e+00
2.469332e+00
2.511522e+00
2.554503e+00
2.598764e+00
2.642644e+00
2.688738e+00
2.737234e+00
2.790963e+00
2.846995e+00
2.905674e+00
2.965058e+00
3.019619e+00
3.073854e+00
3.128558e+00
3.184039e+00
3.246238e+00
3.312341e+00
3.387761e+00
3.465782e+00
3.541643e+00
3.613935e+00
3.677979e+00
3.731804e+00
3.774792e+00
3.808994e+00
3.841437e+00
3.877011e+00
3.916033e+00
3.954353e+00
3.988503e+00
4.020796e+00
4.049369e+00
4.075573e+00
4.096789e+00
4.114164e+00
4.126409e+00
4.132505e+00
4.134822e+00
4.138002e+00
4.136113e+00
4.136744e+00
4.141391e+00
4.149911e+00
4.161396e+00
4.169982e+00
4.181356e+00
4.194410e+00
4.204412e+00
4.210024e+00
4.212309e+00
4.209382e+00
4.200898e+00
4.193623e+00
4.186704e+00
4.178712e+00
4.170349e+00
4.162877e+00
4.155541e+00
4.143787e+00
4.126394e+00
4.104453e+00
4.078106e+00
4.059848e+00
4.041103e+00
4.020165e+00
3.991961e+00
3.956296e+00
3.913818e+00
3.865175e+00
3.816690e+00
3.771427e+00
3.723298e+00
3.674287e+00
3.619446e+00
3.558227e+00
3.497493e+00
3.437768e+00
3.388001e+00
3.338417e+00
3.296386e+00
3.251664e+00
3.208180e+00
3.169077e+00
3.132399e+00
3.100553e+00
3.068007e+00
3.031841e+00
2.997961e+00
2.967585e+00
2.937260e+00
2.914252e+00
2.975226e+00
3.233857e+00
3.486961e+00
3.569200e+00
3.351922e+00
3.155514e+00
3.497563e+00
2.554498e-01
2.164526e-01
2.788745e-01
2.903272e-01
2.954716e-01
3.028468e-01
3.112787e-01
3.198913e-01
3.287141e-01
3.381407e-01
3.478269e-01
3.576687e-01
3.676291e-01
3.778678e-01
3.878870e-01
3.982777e-01
4.085493e-01
4.198772e-01
4.317242e-01
4.441301e-01
4.570704e-01
4.704533e-01
4.838364e-01
4.971709e-01
5.107159e-01
5.245196e-01
5.389024e-01
5.539334e-01
5.706718e-01
5.880534e-01
6.058494e-01
6.243574e-01
6.430009e-01
6.643139e-01
6.862154e-01
7.076084e-01
7.298713e-01
7.555360e-01
7.811844e-01
8.081326e-01
8.375060e-01
8.688523e-01
9.000382e-01
9.329719e-01
9.671615e-01
1.002638e+00
1.038816e+00
1.076487e+00
1.115215e+00
1.153734e+00
1.191822e+00
1.229099e+00
1.265843e+00
1.304568e+00
1.347375e+00
1.391740e+00
1.437218e+00
1.483466e+00
1.529794e+00
1.574565e+00
1.618857e+00
1.663511e+00
1.707184e+00
1.751805e+00
1.794107e+00
1.837220e+00
1.880659e+00
1.923316e+00
1.968827e+00
2.018516e+00
2.069365e+00
2.120020e+00
2.170755e+00
2.220471e+00
2.269254e+00
2.316814e+00
2.362609e+00
2.406884e+00
2.451101e+00
2.497808e+00
2.544069e+00
2.588615e+00
2.632360e+00
2.676869e+00
2.721119e+00
2.767027e+00
2.816820e+00
2.872521e+00
2.933043e+00
2.999010e+00
3.069710e+00
3.142907e+00
3.217390e+00
3.290449e+00
3.360477e+00
3.426674e+00
3.492310e+00
3.557827e+00
3.628620e+00
3.700486e+00
3.777541e+00
3.850503e+00
3.921236e+00
3.983032e+00
4.035517e+00
4.078091e+00
4.113281e+00
4.145620e+00
4.181484e+00
4.222425e+00
4.267644e+00
4.309989e+00
4.349448e+00
4.383723e+00
4.411046e+00
4.436909e+00
4.464262e+00
4.489620e+00
4.505107e+00
4.512713e+00
4.514918e+00
4.515087e+00
4.519223e+00
4.525439e+00
4.532463e+00
4.536920e+00
4.542824e+00
4.554442e+00
4.563008e+00
4.569778e+00
4.571648e+00
4.566098e+00
4.558532e+00
4.547315e+00
4.534238e+00
4.518210e+00
4.501427e+00
4.486022e+00
4.468146e+00
4.450188e+00
4.433316e+00
4.416528e+00
4.395233e+00
4.371675e+00
4.346701e+00
4.317084e+00
4.282601e+00
4.241880e+00
4.191986e+00
4.147914e+00
4.100180e+00
4.047152e+00
3.996817e+00
3.949360e+00
3.895363e+00
3.840101e+00
3.783112e+00
3.725942e+00
3.668639e+00
3.611623e+00
3.554122e+00
3.503929e+00
3.456443e+00
3.408174e+00
3.359345e+00
3.320052e+00
3.287192e+00
3.254958e+00
3.224089e+00
3.191221e+00
3.156616e+00
3.122677e+00
3.099430e+00
3.151960e+00
3.409520e+00
3.671894e+00
3.697835e+00
3.432381e+00
3.216824e+00
3.579825e+00
2.462733e-01
2.243057e-01
3.027314e-01
3.137040e-01
3.180756e-01
3.261190e-01
3.348065e-01
3.439293e-01
3.539208e-01
3.644978e-01
3.749540e-01
3.851636e-01
3.962267e-01
4.075377e-01
4.187371e-01
4.301284e-01
4.419157e-01
4.541733e-01
4.666469e-01
4.798720e-01
4.936236e-01
5.076997e-01
5.223139e-01
5.378140e-01
5.533422e-01
5.694827e-01
5.865566e-01
6.038790e-01
6.219957e-01
6.425214e-01
6.647841e-01
6.878728e-01
7.134209e-01
7.389724e-01
7.643250e-01
7.900923e-01
8.160067e-01
8.466749e-01
8.789073e-01
9.117034e-01
9.444796e-01
9.769015e-01
1.010176e+00
1.045242e+00
1.081073e+00
1.117512e+00
1.154828e+00
1.192122e+00
1.228936e+00
1.267470e+00
1.307058e+00
1.348334e+00
1.388556e+00
1.431028e+00
1.474096e+00
1.517385e+00
1.561688e+00
1.606332e+00
1.650898e+00
1.695293e+00
1.739741e+00
1.783023e+00
1.826594e+00
1.870453e+00
1.913474e+00
1.956712e+00
2.002011e+00
2.050817e+00
2.102836e+00
2.156864e+00
2.209641e+00
2.261574e+00
2.312361e+00
2.361201e+00
2.409151e+00
2.456317e+00
2.502728e+00
2.548840e+00
2.594438e+00
2.639225e+00
2.686688e+00
2.736375e+00
2.785792e+00
2.836854e+00
2.893996e+00
2.953077e+00
3.013662e+00
3.076916e+00
3.141856e+00
3.211566e+00
3.287393e+00
3.365027e+00
3.444393e+00
3.526529e+00
3.608392e+00
3.689781e+00
3.763908e+00
3.834360e+00
3.905991e+00
3.975899e+00
4.046690e+00
4.110523e+00
4.172887e+00
4.228957e+00
4.278553e+00
4.324907e+00
4.368682e+00
4.409741e+00
4.452208e+00
4.497140e+00
4.541728e+00
4.585505e+00
4.627031e+00
4.663689e+00
4.695796e+00
4.725305e+00
4.753450e+00
4.781463e+00
4.799133e+00
4.808276e+00
4.812779e+00
4.815898e+00
4.823971e+00
4.833787e+00
4.838581e+00
4.840862e+00
4.840005e+00
4.838107e+00
4.838029e+00
4.835835e+00
4.833084e+00
4.831045e+00
4.826440e+00
4.815601e+00
4.803865e+00
4.793624e+00
4.781148e+00
4.766018e+00
4.747309e+00
4.726454e+00
4.700170e+00
4.667104e+00
4.629195e+00
4.598247e+00
4.568757e+00
4.537032e+00
4.497476e+00
4.446725e+00
4.391088e+00
4.332970e+00
4.282819e+00
4.230671e+00
4.179451e+00
4.123828e+00
4.068347e+00
4.012435e+00
3.959516e+00
3.905010e+00
3.846466e+00
3.793646e+00
3.742739e+00
3.690850e+00
3.639116e+00
3.589311e+00
3.545320e+00
3.500077e+00
3.461217e+00
3.425176e+00
3.392528e+00
3.357239e+00
3.319248e+00
3.280105e+00
3.249836e+00
3.304328e+00
3.573828e+00
3.823754e+00
3.804226e+00
3.499374e+00
3.267244e+00
3.643698e+00
2.964657e-01
2.250276e-01
3.234703e-01
3.325304e-01
3.407334e-01
3.516371e-01
3.622286e-01
3.726792e-01
3.832830e-01
3.939258e-01
4.045643e-01
4.157173e-01
4.271480e-01
4.392275e-01
4.513320e-01
4.635273e-01
4.755392e-01
4.883150e-01
5.022557e-01
5.171750e-01
5.325852e-01
5.481603e-01
5.638985e-01
5.809151e-01
5.993198e-01
6.196156e-01
6.419751e-01
6.657439e-01
6.911019e-01
7.166391e-01
7.424300e-01
7.695815e-01
7.971441e-01
8.249721e-01
8.559516e-01
8.892261e-01
9.223464e-01
9.571897e-01
9.922911e-01
1.026648e+00
1.060005e+00
1.093382e+00
1.128356e+00
1.163717e+00
1.199244e+00
1.234795e+00
1.270377e+00
1.306108e+00
1.344707e+00
1.384628e+00
1.425539e+00
1.466823e+00
1.507617e+00
1.549541e+00
1.592810e+00
1.635721e+00
1.678287e+00
1.720990e+00
1.763783e+00
1.808718e+00
1.853745e+00
1.898620e+00
1.944138e+00
1.989578e+00
2.034772e+00
2.081017e+00
2.130559e+00
2.180545e+00
2.231226e+00
2.284199e+00
2.336030e+00
2.386354e+00
2.434667e+00
2.482508e+00
2.531112e+00
2.581911e+00
2.632926e+00
2.682682e+00
2.729448e+00
2.777514e+00
2.831421e+00