/*--------------------------------*- C++ -*----------------------------------*\
| =========                 |                                                 |
| \\      /  F ield         | OpenFOAM: The Open Source CFD Toolbox           |
|  \\    /   O peration     | Version:  v2406                                 |
|   \\  /    A nd           | Website:  www.openfoam.com                      |
|    \\/     M anipulation  |                                                 |
\*---------------------------------------------------------------------------*/
FoamFile
{
    version     2.0;
    format      ascii;
    class       volScalarField;
    location    "predicted";
    object      nut;
}
// * * * * * * * * * * * * * * * * * * * * * * * * * * * * * * * * * * * * * //

dimensions      [0 2 -1 0 0 0 0];

internalField   nonuniform List<scalar>
49181
(
-5.853258e-04
2.363721e-04
2.314122e-04
4.866753e-05
-1.438448e-05
-2.465858e-05
-2.905786e-05
-2.874956e-05
-2.772711e-05
-5.126007e-06
-6.336560e-06
-6.377927e-06
-4.434875e-06
-6.029044e-06
4.543649e-07
2.067516e-07
4.492660e-05
-7.453869e-05
2.409584e-04
3.726626e-04
4.137139e-04
3.119430e-04
2.720956e-04
2.668920e-04
2.629987e-04
2.570925e-04
2.563485e-04
2.574286e-04
2.617514e-04
2.628910e-04
2.675979e-04
2.556768e-04
2.517099e-04
2.534203e-04
3.018723e-04
3.397074e-04
2.491644e-04
4.510615e-04
5.493514e-04
4.704273e-04
4.245588e-04
4.068221e-04
3.961679e-04
3.869809e-04
3.748362e-04
3.674934e-04
3.569820e-04
3.564561e-04
3.654195e-04
3.709193e-04
3.868237e-04
4.032548e-04
3.966776e-04
3.845638e-04
9.713173e-05
3.868819e-04
5.667058e-04
5.063889e-04
4.597188e-04
4.366285e-04
4.178326e-04
4.014273e-04
3.857743e-04
3.726387e-04
3.592465e-04
3.646868e-04
3.757447e-04
3.849503e-04
4.245661e-04
4.565707e-04
4.544710e-04
3.965201e-04
6.898509e-05
3.892943e-04
6.154830e-04
5.679506e-04
5.320466e-04
5.139318e-04
4.996112e-04
4.865870e-04
4.724528e-04
4.573793e-04
4.417505e-04
4.399073e-04
4.527402e-04
4.763155e-04
5.109011e-04
5.343894e-04
5.331158e-04
4.892724e-04
9.108813e-05
4.406289e-04
6.809663e-04
6.478631e-04
6.169148e-04
6.005792e-04
5.859944e-04
5.717825e-04
5.578771e-04
5.469271e-04
5.385667e-04
5.356052e-04
5.462226e-04
5.620972e-04
5.979249e-04
6.205329e-04
6.190363e-04
5.752824e-04
1.207023e-04
5.043110e-04
7.305353e-04
7.064270e-04
6.827998e-04
6.707493e-04
6.590761e-04
6.476274e-04
6.367598e-04
6.262820e-04
6.175784e-04
6.146735e-04
6.243068e-04
6.391487e-04
6.661700e-04
6.814039e-04
6.805709e-04
6.459330e-04
1.500997e-04
5.748870e-04
7.664324e-04
7.457400e-04
7.242574e-04
7.134480e-04
7.035759e-04
6.944243e-04
6.857813e-04
6.782649e-04
6.717025e-04
6.688899e-04
6.763848e-04
6.877422e-04
7.096666e-04
7.218585e-04
7.209623e-04
6.925141e-04
1.808976e-04
6.401746e-04
7.994836e-04
7.732748e-04
7.534084e-04
7.439539e-04
7.364752e-04
7.284222e-04
7.211827e-04
7.145919e-04
7.086588e-04
7.058666e-04
7.121821e-04
7.228671e-04
7.405684e-04
7.490840e-04
7.485165e-04
7.259467e-04
2.053746e-04
6.935828e-04
8.199892e-04
7.956142e-04
7.763822e-04
7.667630e-04
7.591662e-04
7.521775e-04
7.455602e-04
7.380473e-04
7.309150e-04
7.271351e-04
7.335857e-04
7.471336e-04
7.635837e-04
7.730536e-04
7.729092e-04
7.517541e-04
2.149996e-04
7.330527e-04
8.298286e-04
8.088853e-04
7.954419e-04
7.869441e-04
7.797670e-04
7.727536e-04
7.658607e-04
7.591878e-04
7.525398e-04
7.486536e-04
7.551233e-04
7.674160e-04
7.834781e-04
7.898902e-04
7.901488e-04
7.722835e-04
2.210824e-04
7.595319e-04
8.334019e-04
8.146640e-04
8.026190e-04
7.970383e-04
7.914478e-04
7.852942e-04
7.792127e-04
7.731563e-04
7.676774e-04
7.651610e-04
7.718398e-04
7.808013e-04
7.940038e-04
7.973217e-04
7.981817e-04
7.838430e-04
2.335186e-04
7.807691e-04
8.364809e-04
8.186133e-04
8.076435e-04
8.029196e-04
7.992574e-04
7.950760e-04
7.895584e-04
7.838574e-04
7.788387e-04
7.765974e-04
7.830510e-04
7.912847e-04
8.005210e-04
8.024308e-04
8.036456e-04
7.924624e-04
2.465789e-04
7.941503e-04
8.393440e-04
8.227310e-04
8.119129e-04
8.073151e-04
8.041894e-04
8.009104e-04
7.970762e-04
7.931539e-04
7.879810e-04
7.857900e-04
7.924431e-04
7.983846e-04
8.046981e-04
8.057537e-04
8.067518e-04
7.976917e-04
2.602460e-04
8.037084e-04
8.421724e-04
8.260210e-04
8.157500e-04
8.108204e-04
8.071446e-04
8.040225e-04
8.013748e-04
7.981314e-04
7.954027e-04
7.950975e-04
8.005062e-04
8.029322e-04
8.081815e-04
8.096544e-04
8.107026e-04
8.007188e-04
2.735996e-04
8.123562e-04
8.442598e-04
8.290670e-04
8.201652e-04
8.156497e-04
8.118295e-04
8.083558e-04
8.051831e-04
8.028421e-04
8.008393e-04
8.005957e-04
8.059692e-04
8.068992e-04
8.130050e-04
8.141456e-04
8.155448e-04
8.053593e-04
2.944603e-04
8.209428e-04
8.473113e-04
8.334463e-04
8.255446e-04
8.214863e-04
8.182433e-04
8.148781e-04
8.116744e-04
8.088485e-04
8.069095e-04
8.070134e-04
8.118762e-04
8.137889e-04
8.201022e-04
8.212965e-04
8.232558e-04
8.130039e-04
3.115349e-04
8.241744e-04
8.528461e-04
8.394409e-04
8.329553e-04
8.301674e-04
8.277951e-04
8.248760e-04
8.217586e-04
8.188711e-04
8.165682e-04
8.164301e-04
8.216883e-04
8.244491e-04
8.303147e-04
8.285880e-04
8.313110e-04
8.237797e-04
3.154397e-04
8.214520e-04
8.560531e-04
8.416727e-04
8.349538e-04
8.350844e-04
8.350200e-04
8.344635e-04
8.330236e-04
8.304780e-04
8.276971e-04
8.273983e-04
8.330262e-04
8.348472e-04
8.347116e-04
8.305723e-04
8.334551e-04
8.298686e-04
3.069711e-04
8.158218e-04
8.497096e-04
8.362476e-04
8.299640e-04
8.303231e-04
8.310637e-04
8.305889e-04
8.299720e-04
8.282041e-04
8.264373e-04
8.267031e-04
8.321167e-04
8.320928e-04
8.312989e-04
8.272658e-04
8.286981e-04
8.251897e-04
2.942955e-04
8.141943e-04
8.372077e-04
8.298797e-04
8.246421e-04
8.235744e-04
8.225490e-04
8.203216e-04
8.180036e-04
8.153224e-04
8.131312e-04
8.134546e-04
8.199676e-04
8.219912e-04
8.242448e-04
8.212585e-04
8.200416e-04
8.201399e-04
4.245014e-04
7.889330e-04
8.458437e-04
8.393156e-04
8.329802e-04
8.293669e-04
8.258991e-04
8.226164e-04
8.195812e-04
8.170420e-04
8.154333e-04
8.163353e-04
8.217347e-04
8.216037e-04
8.273078e-04
8.269883e-04
8.286997e-04
8.298552e-04
3.409402e-04
7.002719e-04
8.334588e-04
8.279594e-04
8.199034e-04
8.155502e-04
8.120454e-04
8.092312e-04
8.061532e-04
8.027915e-04
7.998903e-04
8.000400e-04
8.075499e-04
8.077121e-04
8.121702e-04
8.117437e-04
8.125928e-04
8.121488e-04
2.925496e-04
6.770922e-04
8.273131e-04
8.217264e-04
8.139383e-04
8.094356e-04
8.058773e-04
8.031116e-04
7.999902e-04
7.967286e-04
7.943776e-04
7.949996e-04
8.019921e-04
8.017537e-04
8.065971e-04
8.055089e-04
8.046057e-04
8.036597e-04
2.764892e-04
6.876818e-04
8.260164e-04
8.221579e-04
8.152931e-04
8.109543e-04
8.071943e-04
8.038251e-04
8.013158e-04
7.984797e-04
7.960374e-04
7.969074e-04
8.038250e-04
8.028762e-04
8.079345e-04
8.065110e-04
8.049339e-04
8.052964e-04
2.847037e-04
7.053728e-04
8.263425e-04
8.244686e-04
8.185807e-04
8.145598e-04
8.108229e-04
8.074440e-04
8.044086e-04
8.020497e-04
7.999808e-04
8.006695e-04
8.073780e-04
8.059409e-04
8.108471e-04
8.092081e-04
8.074606e-04
8.095233e-04
3.308722e-04
7.458464e-04
8.327271e-04
8.325890e-04
8.259166e-04
8.227610e-04
8.194778e-04
8.161763e-04
8.126567e-04
8.089651e-04
8.062746e-04
8.067851e-04
8.126501e-04
8.118902e-04
8.156422e-04
8.137107e-04
8.135035e-04
8.158672e-04
5.319841e-04
7.859617e-04
8.534488e-04
8.435060e-04
8.399024e-04
8.366223e-04
8.343256e-04
8.312907e-04
8.248628e-04
8.167018e-04
8.069740e-04
8.032072e-04
8.109512e-04
8.130918e-04
8.179149e-04
8.115128e-04
8.138708e-04
8.138317e-04
3.807595e-04
6.890835e-04
8.459111e-04
8.189864e-04
7.987211e-04
7.930695e-04
7.858116e-04
7.754181e-04
7.547346e-04
7.256269e-04
6.933687e-04
6.642386e-04
6.699837e-04
6.900817e-04
7.029018e-04
6.978643e-04
6.847516e-04
6.474884e-04
-4.807056e-04
3.429858e-04
5.099169e-04
3.111349e-04
2.548939e-04
2.386062e-04
2.265997e-04
2.166762e-04
2.188317e-04
2.498625e-04
2.378560e-04
2.164152e-04
2.057677e-04
2.245247e-04
2.372049e-04
2.559017e-04
2.277049e-04
2.332638e-04
-3.459989e-04
3.721205e-04
5.542659e-04
5.328851e-04
5.374900e-04
5.429979e-04
5.479200e-04
5.526478e-04
5.572121e-04
5.617639e-04
5.662347e-04
5.706136e-04
5.749863e-04
5.793855e-04
5.836965e-04
5.881336e-04
5.924583e-04
5.966456e-04
6.004976e-04
6.040696e-04
6.077122e-04
6.118232e-04
6.161489e-04
6.208316e-04
6.257127e-04
6.307523e-04
6.358488e-04
6.409178e-04
6.456938e-04
6.503350e-04
6.550513e-04
6.598787e-04
6.645359e-04
6.691013e-04
6.736246e-04
6.786065e-04
6.844216e-04
6.906460e-04
6.959240e-04
6.997896e-04
7.035210e-04
7.075814e-04
7.111524e-04
7.143495e-04
7.169299e-04
7.192110e-04
7.206957e-04
7.218915e-04
7.234118e-04
7.248894e-04
7.263525e-04
7.283319e-04
7.304675e-04
7.324835e-04
7.347156e-04
7.376404e-04
7.409502e-04
7.445658e-04
7.479568e-04
7.511666e-04
7.532753e-04
7.558323e-04
7.594383e-04
7.634423e-04
7.684024e-04
7.742113e-04
7.805313e-04
7.867061e-04
7.932441e-04
7.995684e-04
8.054555e-04
8.105599e-04
8.160180e-04
8.214186e-04
8.262859e-04
8.308860e-04
8.368003e-04
8.423359e-04
8.475853e-04
8.509073e-04
8.525242e-04
8.548886e-04
8.573736e-04
8.593620e-04
8.609145e-04
8.621983e-04
8.633911e-04
8.650730e-04
8.666274e-04
8.650456e-04
8.621248e-04
8.581820e-04
8.507019e-04
8.413374e-04
8.314573e-04
8.206004e-04
8.079915e-04
7.930066e-04
7.784665e-04
7.637567e-04
7.486553e-04
7.313505e-04
7.119971e-04
6.913690e-04
6.707391e-04
6.486207e-04
6.266842e-04
6.052532e-04
5.841724e-04
5.622234e-04
5.437757e-04
5.268892e-04
5.081482e-04
4.879539e-04
4.704424e-04
4.570130e-04
4.455273e-04
4.349180e-04
4.240381e-04
4.136582e-04
4.041411e-04
3.948166e-04
3.879114e-04
3.833258e-04
3.834738e-04
3.890469e-04
3.970053e-04
4.080543e-04
4.183010e-04
4.284974e-04
4.384509e-04
4.482324e-04
4.566457e-04
4.609655e-04
4.648925e-04
4.698833e-04
4.797262e-04
4.916872e-04
5.034807e-04
5.163541e-04
5.286508e-04
5.420129e-04
5.541103e-04
5.662588e-04
5.817962e-04
5.989957e-04
6.146864e-04
6.311033e-04
6.489627e-04
6.623956e-04
6.778235e-04
6.977436e-04
7.163928e-04
7.330180e-04
7.487297e-04
7.629470e-04
7.753325e-04
7.861751e-04
7.973359e-04
8.101223e-04
8.228650e-04
8.343495e-04
8.435723e-04
8.525247e-04
8.624152e-04
8.730606e-04
8.844410e-04
8.955961e-04
9.056573e-04
9.136846e-04
9.204628e-04
9.276159e-04
9.436381e-04
9.808533e-04
9.172331e-04
8.624719e-04
7.095733e-04
7.052118e-04
7.879881e-04
1.137097e-03
3.685793e-04
3.377324e-04
3.723842e-04
3.969297e-04
4.023289e-04
4.076779e-04
4.133486e-04
4.191361e-04
4.250887e-04
4.315593e-04
4.380838e-04
4.449460e-04
4.518183e-04
4.586395e-04
4.652136e-04
4.717494e-04
4.782333e-04
4.844352e-04
4.906661e-04
4.967456e-04
5.027306e-04
5.087161e-04
5.146934e-04
5.204605e-04
5.257393e-04
5.310388e-04
5.361049e-04
5.413086e-04
5.464638e-04
5.517037e-04
5.569398e-04
5.629764e-04
5.691190e-04
5.754360e-04
5.818667e-04
5.886938e-04
5.960374e-04
6.035486e-04
6.108018e-04
6.179046e-04
6.250360e-04
6.321359e-04
6.394393e-04
6.467321e-04
6.540610e-04
6.618603e-04
6.700477e-04
6.788961e-04
6.879913e-04
6.979833e-04
7.086716e-04
7.195144e-04
7.304814e-04
7.417743e-04
7.522998e-04
7.631845e-04
7.742918e-04
7.859177e-04
7.983882e-04
8.118053e-04
8.256391e-04
8.392867e-04
8.526481e-04
8.665710e-04
8.805983e-04
8.939002e-04
9.063390e-04
9.180653e-04
9.294661e-04
9.414972e-04
9.537210e-04
9.664537e-04
9.802775e-04
9.947603e-04
1.009087e-03
1.021139e-03
1.032595e-03
1.046089e-03
1.059700e-03
1.073407e-03
1.086637e-03
1.101379e-03
1.116347e-03
1.130558e-03
1.144855e-03
1.158790e-03
1.172458e-03
1.186710e-03
1.199949e-03
1.212234e-03
1.223824e-03
1.234211e-03
1.243063e-03
1.250920e-03
1.255088e-03
1.258353e-03
1.260468e-03
1.262653e-03
1.262482e-03
1.262973e-03
1.263516e-03
1.261618e-03
1.255524e-03
1.250481e-03
1.246951e-03
1.244631e-03
1.244358e-03
1.244477e-03
1.245213e-03
1.244746e-03
1.241679e-03
1.233729e-03
1.222938e-03
1.211005e-03
1.199447e-03
1.188763e-03
1.174721e-03
1.161516e-03
1.150380e-03
1.142152e-03
1.132960e-03
1.126177e-03
1.120387e-03
1.115710e-03
1.114247e-03
1.117423e-03
1.123222e-03
1.130498e-03
1.140576e-03
1.150160e-03
1.158342e-03
1.165907e-03
1.174779e-03
1.183129e-03
1.190584e-03
1.194732e-03
1.197163e-03
1.198737e-03
1.199031e-03
1.196893e-03
1.193538e-03
1.190671e-03
1.186311e-03
1.181581e-03
1.176156e-03
1.170229e-03
1.164668e-03
1.160711e-03
1.161463e-03
1.162553e-03
1.164128e-03
1.166095e-03
1.167316e-03
1.167517e-03
1.165267e-03
1.159387e-03
1.151942e-03
1.148414e-03
1.144435e-03
1.141191e-03
1.136330e-03
1.128599e-03
1.120474e-03
1.112922e-03
1.105116e-03
1.096920e-03
1.089724e-03
1.079707e-03
1.066986e-03
1.054252e-03
1.042332e-03
1.036351e-03
1.046711e-03
1.107598e-03
1.269771e-03
1.366010e-03
1.521429e-03
1.751279e-03
1.952465e-03
1.996060e-03
5.786317e-04
3.970515e-04
4.618026e-04
4.685899e-04
4.710150e-04
4.773560e-04
4.841289e-04
4.910720e-04
4.980165e-04
5.047674e-04
5.113863e-04
5.180976e-04
5.249992e-04
5.326193e-04
5.402023e-04
5.475507e-04
5.549677e-04
5.625377e-04
5.699742e-04
5.775696e-04
5.850304e-04
5.925806e-04
6.003691e-04
6.082076e-04
6.160412e-04
6.238588e-04
6.318794e-04
6.404530e-04
6.493389e-04
6.583293e-04
6.676177e-04
6.764301e-04
6.855800e-04
6.958093e-04
7.071411e-04
7.187563e-04
7.306980e-04
7.426197e-04
7.543042e-04
7.656637e-04
7.773258e-04
7.889177e-04
8.006908e-04
8.124174e-04
8.244801e-04
8.369552e-04
8.498045e-04
8.630142e-04
8.765894e-04
8.917232e-04
9.072807e-04
9.236799e-04
9.409936e-04
9.581726e-04
9.750538e-04
9.920501e-04
1.010279e-03
1.030136e-03
1.053283e-03
1.077326e-03
1.101542e-03
1.124247e-03
1.146312e-03
1.169278e-03
1.192974e-03
1.216532e-03
1.240775e-03
1.264819e-03
1.288424e-03
1.311029e-03
1.333733e-03
1.356693e-03
1.379016e-03
1.400640e-03
1.423296e-03
1.446447e-03
1.469393e-03
1.491935e-03
1.514823e-03
1.538012e-03
1.561725e-03
1.584944e-03
1.607659e-03
1.629921e-03
1.652504e-03
1.676263e-03
1.700831e-03
1.724370e-03
1.745247e-03
1.766064e-03
1.786712e-03
1.805571e-03
1.824477e-03
1.842598e-03
1.862505e-03
1.881548e-03
1.900527e-03
1.922360e-03
1.943880e-03
1.963275e-03
1.982197e-03
1.999737e-03
2.016636e-03
2.033801e-03
2.050279e-03
2.065596e-03
2.079275e-03
2.092542e-03
2.104122e-03
2.115489e-03
2.125063e-03
2.129548e-03
2.130114e-03
2.125583e-03
2.120498e-03
2.115857e-03
2.110560e-03
2.105007e-03
2.098620e-03
2.091279e-03
2.084168e-03
2.081443e-03
2.083190e-03
2.086610e-03
2.092076e-03
2.098434e-03
2.104207e-03
2.110509e-03
2.124833e-03
2.136440e-03
2.143196e-03
2.147768e-03
2.150682e-03
2.158557e-03
2.167497e-03
2.173896e-03
2.179252e-03
2.182260e-03
2.180881e-03
2.180992e-03
2.178257e-03
2.172838e-03
2.160093e-03
2.144649e-03
2.126172e-03
2.106840e-03
2.088589e-03
2.068262e-03
2.044630e-03
2.016077e-03
1.990383e-03
1.969684e-03
1.956463e-03
1.942719e-03
1.926460e-03
1.912902e-03
1.902530e-03
1.889474e-03
1.873321e-03
1.860045e-03
1.848601e-03
1.837124e-03
1.826384e-03
1.819377e-03
1.813205e-03
1.808092e-03
1.802783e-03
1.798273e-03
1.792044e-03
1.785103e-03
1.779545e-03
1.776524e-03
1.791214e-03
1.874936e-03
2.062267e-03
2.259644e-03
2.587048e-03
2.809132e-03
2.943036e-03
3.041556e-03
5.490622e-04
4.314458e-04
4.806210e-04
4.872580e-04
4.920717e-04
4.983532e-04
5.051861e-04
5.120706e-04
5.189271e-04
5.257477e-04
5.325115e-04
5.393316e-04
5.462462e-04
5.534176e-04
5.608622e-04
5.688477e-04
5.770739e-04
5.858718e-04
5.953145e-04
6.050409e-04
6.157266e-04
6.263740e-04
6.367629e-04
6.476298e-04
6.587345e-04
6.703384e-04
6.824040e-04
6.945708e-04
7.070565e-04
7.195408e-04
7.322100e-04
7.451004e-04
7.578463e-04
7.711760e-04
7.847459e-04
7.989491e-04
8.131396e-04
8.278703e-04
8.429460e-04
8.580778e-04
8.729989e-04
8.872594e-04
9.023997e-04
9.177291e-04
9.331528e-04
9.486875e-04
9.642525e-04
9.812523e-04
9.990918e-04
1.017454e-03
1.037583e-03
1.060147e-03
1.083613e-03
1.107569e-03
1.133422e-03
1.160656e-03
1.188531e-03
1.216975e-03
1.244638e-03
1.271746e-03
1.297797e-03
1.324191e-03
1.350813e-03
1.378635e-03
1.406997e-03
1.435806e-03
1.465198e-03
1.494903e-03
1.524478e-03
1.554094e-03
1.583859e-03
1.614187e-03
1.644116e-03
1.673323e-03
1.702098e-03
1.731772e-03
1.761301e-03
1.790078e-03
1.819421e-03
1.849375e-03
1.881552e-03
1.912455e-03
1.941461e-03
1.970207e-03
2.000752e-03
2.032730e-03
2.064155e-03
2.094509e-03
2.121557e-03
2.146801e-03
2.171473e-03
2.197701e-03
2.224140e-03
2.251506e-03
2.281160e-03
2.311928e-03
2.344025e-03
2.376895e-03
2.409123e-03
2.440091e-03
2.471459e-03
2.505476e-03
2.541254e-03
2.579279e-03
2.615612e-03
2.646285e-03
2.671143e-03
2.693973e-03
2.713202e-03
2.734270e-03
2.758029e-03
2.779810e-03
2.801392e-03
2.818126e-03
2.829406e-03
2.837674e-03
2.846166e-03
2.856884e-03
2.865388e-03
2.873900e-03
2.882587e-03
2.892523e-03
2.904558e-03
2.917467e-03
2.931985e-03
2.946888e-03
2.965456e-03
2.984669e-03
3.003222e-03
3.021312e-03
3.037646e-03
3.054944e-03
3.074519e-03
3.094907e-03
3.113564e-03
3.129018e-03
3.139725e-03
3.148481e-03
3.157398e-03
3.165454e-03
3.171352e-03
3.176646e-03
3.178707e-03
3.171724e-03
3.160650e-03
3.146728e-03
3.129125e-03
3.108129e-03
3.088483e-03
3.070089e-03
3.051523e-03
3.033409e-03
3.014086e-03
2.997205e-03
2.978551e-03
2.958324e-03
2.930629e-03
2.899671e-03
2.865040e-03
2.827577e-03
2.787657e-03
2.749863e-03
2.716836e-03
2.687452e-03
2.662095e-03
2.647366e-03
2.637037e-03
2.626978e-03
2.618817e-03
2.613066e-03
2.606379e-03
2.601113e-03
2.606532e-03
2.700027e-03
2.959395e-03
3.113637e-03
3.352929e-03
3.415981e-03
3.429065e-03
3.673778e-03
5.327744e-04
4.425605e-04
4.911385e-04
5.001575e-04
5.037228e-04
5.093598e-04
5.156302e-04
5.221091e-04
5.291634e-04
5.362750e-04
5.437363e-04
5.521998e-04
5.611047e-04
5.702713e-04
5.798222e-04
5.898362e-04
6.001377e-04
6.107281e-04
6.216849e-04
6.321405e-04
6.428600e-04
6.538773e-04
6.652909e-04
6.777768e-04
6.902339e-04
7.028711e-04
7.159148e-04
7.293660e-04
7.430836e-04
7.567181e-04
7.705902e-04
7.844398e-04
7.986291e-04
8.129758e-04
8.276762e-04
8.426791e-04
8.578030e-04
8.733293e-04
8.886133e-04
9.034384e-04
9.188341e-04
9.354021e-04
9.523262e-04
9.693232e-04
9.872445e-04
1.007013e-03
1.027844e-03
1.048860e-03
1.071339e-03
1.095194e-03
1.121206e-03
1.149018e-03
1.176818e-03
1.205094e-03
1.235204e-03
1.265118e-03
1.294579e-03
1.323376e-03
1.352184e-03
1.380934e-03
1.409485e-03
1.439511e-03
1.469905e-03
1.500809e-03
1.532018e-03
1.563814e-03
1.596575e-03
1.629217e-03
1.660667e-03
1.691669e-03
1.723848e-03
1.756171e-03
1.788474e-03
1.820285e-03
1.852498e-03
1.888516e-03
1.924180e-03
1.957147e-03
1.989798e-03
2.022359e-03
2.053629e-03
2.085068e-03
2.117841e-03
2.148783e-03
2.178794e-03
2.210501e-03
2.241422e-03
2.270821e-03
2.299316e-03
2.328993e-03
2.357692e-03
2.387786e-03
2.419393e-03
2.452808e-03
2.487649e-03
2.525073e-03
2.565502e-03
2.606598e-03
2.650432e-03
2.695946e-03
2.742205e-03
2.791823e-03
2.841266e-03
2.884040e-03
2.923731e-03
2.961258e-03
2.989656e-03
3.014735e-03
3.040294e-03
3.068228e-03
3.095924e-03
3.120490e-03
3.143072e-03
3.162553e-03
3.176697e-03
3.191520e-03
3.207009e-03
3.220759e-03
3.233724e-03
3.246970e-03
3.260768e-03
3.279073e-03
3.295281e-03
3.312834e-03
3.331694e-03
3.358800e-03
3.388732e-03
3.419039e-03
3.443188e-03
3.466545e-03
3.491368e-03
3.514928e-03
3.536943e-03
3.559900e-03
3.582315e-03
3.605403e-03
3.626973e-03
3.648332e-03
3.662899e-03
3.671435e-03
3.677474e-03
3.680449e-03
3.683654e-03
3.689290e-03
3.691608e-03
3.692283e-03
3.690355e-03
3.682614e-03
3.671755e-03
3.654831e-03
3.636547e-03
3.614594e-03
3.590924e-03
3.566963e-03
3.543768e-03
3.515931e-03
3.484426e-03
3.449193e-03
3.413812e-03
3.379494e-03
3.345424e-03
3.312137e-03
3.278449e-03
3.246990e-03
3.216626e-03
3.192538e-03
3.174271e-03
3.162346e-03
3.152469e-03
3.140998e-03
3.129614e-03
3.118366e-03
3.114245e-03
3.195160e-03
3.459777e-03
3.555702e-03
3.664673e-03
3.651287e-03
3.649389e-03
3.953830e-03
5.160916e-04
4.526792e-04
5.054911e-04
5.122761e-04
5.166541e-04
5.228716e-04
5.295922e-04
5.366341e-04
5.439873e-04
5.520936e-04
5.605402e-04
5.693719e-04
5.789845e-04
5.889330e-04
5.994694e-04
6.102775e-04
6.214179e-04
6.328165e-04
6.441808e-04
6.550613e-04
6.666742e-04
6.784082e-04
6.907814e-04
7.035107e-04
7.163627e-04
7.294730e-04
7.426988e-04
7.560106e-04
7.693484e-04
7.826767e-04
7.961417e-04
8.102828e-04
8.245797e-04
8.391703e-04
8.540813e-04
8.694852e-04
8.859404e-04
9.022140e-04
9.182051e-04
9.357399e-04
9.546694e-04
9.747645e-04
9.956460e-04
1.016863e-03
1.037956e-03
1.060853e-03
1.084616e-03
1.109940e-03
1.136234e-03
1.162826e-03
1.193011e-03
1.223080e-03
1.253214e-03
1.283434e-03
1.313113e-03
1.342932e-03
1.373200e-03
1.403535e-03
1.434096e-03
1.465492e-03
1.496718e-03
1.528406e-03
1.560544e-03
1.592274e-03
1.624205e-03
1.656673e-03
1.691334e-03
1.725690e-03
1.758372e-03
1.790655e-03
1.825084e-03
1.858545e-03
1.894383e-03
1.931403e-03
1.966288e-03
2.002303e-03
2.037308e-03
2.071229e-03
2.103970e-03
2.134770e-03
2.163460e-03
2.193592e-03
2.227606e-03
2.262638e-03
2.297548e-03
2.333873e-03
2.369885e-03
2.407437e-03
2.445527e-03
2.484316e-03
2.522617e-03
2.560224e-03
2.598621e-03
2.638183e-03
2.680006e-03
2.724545e-03
2.771809e-03
2.819046e-03
2.866572e-03
2.917201e-03
2.972203e-03
3.023006e-03
3.070592e-03
3.115764e-03
3.151546e-03
3.179279e-03
3.201138e-03
3.221136e-03
3.244443e-03
3.271303e-03
3.296473e-03
3.320165e-03
3.342175e-03
3.362171e-03
3.382052e-03
3.405297e-03
3.428661e-03
3.451190e-03
3.472225e-03
3.492552e-03
3.512040e-03
3.532220e-03
3.553034e-03
3.576635e-03
3.604464e-03
3.633148e-03
3.663809e-03
3.693514e-03
3.722768e-03
3.751223e-03
3.779591e-03
3.806983e-03
3.832808e-03
3.859956e-03
3.890763e-03
3.924681e-03
3.951988e-03
3.973645e-03
3.991350e-03
4.004573e-03
4.013687e-03
4.019816e-03
4.020371e-03
4.022019e-03
4.028928e-03
4.035269e-03
4.040603e-03
4.041873e-03
4.034439e-03
4.022019e-03
4.005256e-03
3.983210e-03
3.958703e-03
3.932253e-03
3.901900e-03
3.868645e-03
3.838998e-03
3.807215e-03
3.773649e-03
3.743841e-03
3.707665e-03
3.672170e-03
3.642258e-03
3.615378e-03
3.590095e-03
3.565465e-03
3.543883e-03
3.525284e-03
3.507534e-03
3.488736e-03
3.468835e-03
3.449379e-03
3.437950e-03
3.522443e-03
3.783473e-03
3.840454e-03
3.875473e-03
3.802796e-03
3.783237e-03
4.129482e-03
4.889792e-04
4.587680e-04
5.196916e-04
5.311379e-04
5.364278e-04
5.433413e-04
5.507696e-04
5.584785e-04
5.664468e-04
5.748703e-04
5.840815e-04
5.939538e-04
6.041787e-04
6.147480e-04
6.254871e-04
6.361269e-04
6.467846e-04
6.575984e-04
6.686372e-04
6.800887e-04
6.912833e-04
7.027394e-04
7.148454e-04
7.272982e-04
7.400198e-04
7.531272e-04
7.666347e-04
7.805312e-04
7.947132e-04
8.093123e-04
8.243250e-04
8.399803e-04
8.559823e-04
8.714895e-04
8.878527e-04
9.043104e-04
9.209130e-04
9.383507e-04
9.585277e-04
9.788851e-04
9.995248e-04
1.020429e-03
1.042798e-03
1.066094e-03
1.090544e-03
1.115791e-03
1.142758e-03
1.171123e-03
1.200161e-03
1.229500e-03
1.259078e-03
1.288311e-03
1.318477e-03
1.347301e-03
1.376944e-03
1.408153e-03
1.440068e-03
1.471638e-03
1.502982e-03
1.535395e-03
1.567148e-03
1.598655e-03
1.632128e-03
1.665510e-03
1.699296e-03
1.734030e-03
1.768782e-03
1.803787e-03
1.839091e-03
1.873764e-03
1.911055e-03
1.948159e-03
1.985511e-03
2.023751e-03
2.061016e-03
2.097327e-03
2.132417e-03
2.167823e-03
2.202046e-03
2.236529e-03
2.272183e-03
2.307738e-03
2.343386e-03
2.379061e-03
2.415230e-03
2.452995e-03
2.491669e-03
2.532824e-03
2.576511e-03
2.623543e-03
2.671295e-03
2.720289e-03
2.764230e-03
2.804308e-03
2.844495e-03
2.885590e-03
2.926980e-03
2.972849e-03
3.018924e-03
3.069223e-03
3.121558e-03
3.174855e-03
3.226058e-03
3.271614e-03
3.309928e-03
3.340646e-03
3.365738e-03
3.390380e-03
3.416659e-03
3.443778e-03
3.472825e-03
3.498393e-03
3.523335e-03
3.544838e-03
3.567596e-03
3.593288e-03
3.622431e-03
3.652483e-03
3.681017e-03
3.706031e-03
3.730526e-03
3.757074e-03
3.786487e-03
3.819642e-03
3.852760e-03
3.887254e-03
3.923050e-03
3.952081e-03
3.981557e-03
4.010435e-03
4.040907e-03
4.074534e-03
4.104986e-03
4.134697e-03
4.163869e-03
4.192537e-03
4.220078e-03
4.244364e-03
4.263642e-03
4.280188e-03
4.293433e-03
4.300569e-03
4.302635e-03
4.301911e-03
4.305233e-03
4.312037e-03
4.318032e-03
4.318816e-03
4.312064e-03
4.299683e-03
4.281761e-03
4.260145e-03
4.234788e-03
4.207412e-03
4.181310e-03
4.153323e-03
4.121538e-03
4.088049e-03
4.057743e-03
4.034530e-03
4.006715e-03
3.977733e-03
3.948571e-03
3.918415e-03
3.893209e-03
3.871047e-03
3.853458e-03
3.833290e-03
3.809417e-03
3.786579e-03
3.767565e-03
3.748794e-03
3.737461e-03
3.821127e-03
4.054381e-03
4.063307e-03
4.053310e-03
3.919890e-03
3.882849e-03
4.269239e-03
4.356397e-04
4.588929e-04
5.446055e-04
5.527585e-04
5.591864e-04
5.666742e-04
5.745991e-04
5.826794e-04
5.911191e-04
6.002729e-04
6.096708e-04
6.191780e-04
6.290362e-04
6.392227e-04
6.493510e-04
6.598015e-04
6.702737e-04
6.815812e-04
6.934138e-04
7.057839e-04
7.186406e-04
7.317974e-04
7.447857e-04
7.575413e-04
7.708130e-04
7.842994e-04
7.977750e-04
8.114829e-04
8.272272e-04
8.442696e-04
8.614601e-04
8.783683e-04
8.946789e-04
9.125312e-04
9.308741e-04
9.490764e-04
9.668464e-04
9.863269e-04
1.005612e-03
1.025432e-03
1.046868e-03
1.070916e-03
1.094989e-03
1.119909e-03
1.145608e-03
1.172525e-03
1.199665e-03
1.227953e-03
1.257232e-03
1.286943e-03
1.315729e-03
1.344065e-03
1.372246e-03
1.402534e-03
1.433676e-03
1.464843e-03
1.496313e-03
1.528304e-03
1.562369e-03
1.596213e-03
1.629680e-03
1.663509e-03
1.696767e-03
1.730834e-03
1.764157e-03
1.798976e-03
1.834606e-03
1.870321e-03
1.908294e-03
1.948850e-03
1.988476e-03
2.028021e-03
2.069354e-03
2.109890e-03
2.150466e-03
2.190003e-03
2.228075e-03
2.263985e-03
2.299103e-03
2.336320e-03
2.372600e-03
2.408611e-03
2.443282e-03
2.480397e-03
2.518424e-03
2.556607e-03
2.597052e-03
2.640034e-03
2.682062e-03
2.727636e-03
2.775634e-03
2.825363e-03
2.874244e-03
2.921271e-03
2.967584e-03
3.012896e-03
3.057016e-03
3.100681e-03
3.148446e-03
3.197851e-03
3.252469e-03
3.305863e-03
3.357084e-03
3.400504e-03
3.437124e-03
3.468625e-03
3.496750e-03
3.523606e-03
3.553271e-03
3.586073e-03
3.620390e-03
3.651258e-03
3.680214e-03
3.706448e-03
3.733097e-03
3.762986e-03
3.795756e-03
3.829642e-03
3.863405e-03
3.893515e-03
3.920341e-03
3.950245e-03
3.983183e-03
4.018011e-03
4.054719e-03
4.091147e-03
4.126271e-03
4.156132e-03
4.187700e-03
4.219596e-03
4.249174e-03
4.275982e-03
4.301911e-03
4.328520e-03
4.357882e-03
4.388499e-03
4.416719e-03
4.441677e-03
4.464659e-03
4.483306e-03
4.499611e-03
4.512699e-03
4.521938e-03
4.527380e-03
4.529925e-03
4.533057e-03
4.533836e-03
4.530831e-03
4.519587e-03
4.507601e-03
4.492096e-03
4.471978e-03
4.449762e-03
4.427220e-03
4.402520e-03
4.379347e-03
4.355305e-03
4.328551e-03
4.299778e-03
4.271677e-03
4.243118e-03
4.216023e-03
4.192244e-03
4.167804e-03
4.142638e-03
4.123357e-03
4.105131e-03
4.088986e-03
4.075679e-03
4.058148e-03
4.033069e-03
4.009542e-03
3.997668e-03
4.072999e-03
4.309984e-03
4.255104e-03
4.189983e-03
4.018097e-03
3.961518e-03
4.393850e-03
3.476675e-04
4.574946e-04
5.634819e-04
5.746329e-04
5.813094e-04
5.891202e-04
5.969214e-04
6.049301e-04
6.137030e-04
6.232137e-04
6.328448e-04
6.424282e-04
6.526125e-04
6.633169e-04
6.740837e-04
6.851417e-04
6.965859e-04
7.081667e-04
7.199195e-04
7.325547e-04
7.456662e-04
7.588347e-04
7.722704e-04
7.867864e-04
8.015107e-04
8.164507e-04
8.318376e-04
8.472858e-04
8.631844e-04
8.805481e-04
8.981065e-04
9.155976e-04
9.335652e-04
9.517399e-04
9.698031e-04
9.880541e-04
1.006656e-03
1.028274e-03
1.050963e-03
1.074126e-03
1.097914e-03
1.122005e-03
1.146485e-03
1.172374e-03
1.198197e-03
1.224413e-03
1.251380e-03
1.279117e-03
1.306416e-03
1.333897e-03
1.362088e-03
1.391661e-03
1.420640e-03
1.450859e-03
1.482847e-03
1.515242e-03
1.548216e-03
1.581175e-03
1.614803e-03
1.649140e-03
1.683739e-03
1.718438e-03
1.753121e-03
1.787684e-03
1.821743e-03
1.856191e-03
1.892914e-03
1.935548e-03
1.980692e-03
2.026335e-03
2.070394e-03
2.112928e-03
2.154346e-03
2.193461e-03
2.231144e-03
2.268990e-03
2.306484e-03
2.343006e-03
2.378780e-03
2.412856e-03
2.447147e-03
2.483126e-03
2.519842e-03
2.556107e-03
2.593687e-03
2.633515e-03
2.674711e-03
2.716734e-03
2.759063e-03
2.803081e-03
2.850817e-03
2.900389e-03
2.951095e-03
3.003621e-03
3.055230e-03
3.106264e-03
3.153831e-03
3.199681e-03
3.247731e-03
3.296366e-03
3.347336e-03
3.393149e-03
3.436804e-03
3.476736e-03
3.516214e-03
3.553174e-03
3.588601e-03
3.620904e-03
3.652823e-03
3.685670e-03
3.721437e-03
3.757878e-03
3.794457e-03
3.827959e-03
3.861570e-03
3.893381e-03
3.925140e-03
3.959123e-03
3.993631e-03
4.022963e-03
4.051427e-03
4.081225e-03
4.114453e-03
4.147943e-03
4.180842e-03
4.211071e-03
4.238775e-03
4.266178e-03
4.295447e-03
4.325431e-03
4.353828e-03
4.380393e-03
4.405718e-03
4.431732e-03
4.459106e-03
4.489996e-03
4.519412e-03
4.547652e-03
4.574171e-03
4.597436e-03
4.615784e-03
4.628387e-03
4.637738e-03
4.646975e-03
4.658087e-03
4.666929e-03
4.673957e-03
4.677008e-03
4.670382e-03
4.659967e-03
4.649646e-03
4.639092e-03
4.625474e-03
4.607043e-03
4.589688e-03
4.570682e-03
4.550418e-03
4.527272e-03
4.500961e-03
4.475628e-03
4.451084e-03
4.426391e-03
4.399377e-03
4.372958e-03
4.351976e-03
4.330432e-03
4.313579e-03
4.297992e-03
4.285492e-03
4.271993e-03
4.254308e-03
4.233247e-03
4.220464e-03
4.297994e-03
4.537710e-03
4.417169e-03
4.290293e-03
4.101701e-03
4.023100e-03
4.491789e-03
2.682843e-04
4.398423e-04
5.736928e-04
5.818427e-04
5.886044e-04
5.980026e-04
6.066131e-04
6.150928e-04
6.241088e-04
6.334250e-04
6.429691e-04
6.529730e-04
6.633199e-04
6.743318e-04
6.855760e-04
6.969486e-04
7.080045e-04
7.196780e-04
7.326410e-04
7.464287e-04
7.603794e-04
7.743556e-04
7.883116e-04
8.024328e-04
8.172847e-04
8.326404e-04
8.483352e-04
8.646894e-04
8.818186e-04
8.991819e-04
9.165529e-04
9.346982e-04
9.535075e-04
9.727065e-04
9.937300e-04
1.015904e-03
1.038052e-03
1.061747e-03
1.086286e-03
1.111161e-03
1.135378e-03
1.159534e-03
1.183580e-03
1.207824e-03
1.233121e-03
1.258700e-03
1.284518e-03
1.310955e-03
1.338968e-03
1.368183e-03
1.399827e-03
1.432299e-03
1.464935e-03
1.498547e-03
1.532434e-03
1.564894e-03
1.596168e-03
1.627308e-03
1.659052e-03
1.693149e-03
1.729190e-03
1.766400e-03
1.804646e-03
1.844118e-03
1.883209e-03
1.922479e-03
1.965326e-03
2.007456e-03
2.048626e-03
2.091618e-03
2.134319e-03
2.175757e-03
2.214799e-03
2.252220e-03
2.288047e-03
2.323554e-03
2.358624e-03
2.393178e-03
2.427118e-03
2.461850e-03