/*--------------------------------*- C++ -*----------------------------------*\
| =========                 |                                                 |
| \\      /  F ield         | OpenFOAM: The Open Source CFD Toolbox           |
|  \\    /   O peration     | Version:  v2406                                 |
|   \\  /    A nd           | Website:  www.openfoam.com                      |
|    \\/     M anipulation  |                                                 |
\*---------------------------------------------------------------------------*/
FoamFile
{
    version     2.0;
    format      ascii;
    class       volScalarField;
    location    "predicted";
    object      p;
}
// * * * * * * * * * * * * * * * * * * * * * * * * * * * * * * * * * * * * * //

dimensions      [0 2 -2 0 0 0 0];

internalField   nonuniform List<scalar>
49181
(
-5.923961e+00
-5.876054e+00
-6.007278e+00
-6.943330e+00
-7.151042e+00
-7.230827e+00
-7.296410e+00
-7.356553e+00
-7.414502e+00
-7.452983e+00
-7.476935e+00
-7.481656e+00
-7.464511e+00
-7.433778e+00
-7.334555e+00
-7.167003e+00
-7.201756e+00
-6.586306e+00
-5.794916e+00
-5.632687e+00
-5.848928e+00
-6.307306e+00
-6.480139e+00
-6.522332e+00
-6.556588e+00
-6.583874e+00
-6.574115e+00
-6.550191e+00
-6.530386e+00
-6.537125e+00
-6.522848e+00
-6.506743e+00
-6.484656e+00
-6.432655e+00
-6.323633e+00
-6.227498e+00
-5.834606e+00
-5.856890e+00
-6.067177e+00
-6.425335e+00
-6.561464e+00
-6.618358e+00
-6.661872e+00
-6.704463e+00
-6.744650e+00
-6.765571e+00
-6.805751e+00
-6.829929e+00
-6.783339e+00
-6.720406e+00
-6.632924e+00
-6.616231e+00
-6.619531e+00
-6.733576e+00
-6.545045e+00
-6.256417e+00
-6.391473e+00
-6.720166e+00
-6.882492e+00
-6.944221e+00
-6.989246e+00
-7.030830e+00
-7.066985e+00
-7.112727e+00
-7.173418e+00
-7.167018e+00
-7.113127e+00
-7.059968e+00
-6.988527e+00
-6.948497e+00
-6.956726e+00
-7.092582e+00
-6.589747e+00
-6.384265e+00
-6.435084e+00
-6.718489e+00
-6.864662e+00
-6.925847e+00
-6.974459e+00
-7.020867e+00
-7.068778e+00
-7.107744e+00
-7.151622e+00
-7.154462e+00
-7.100544e+00
-7.054774e+00
-6.959554e+00
-6.917373e+00
-6.920953e+00
-7.064496e+00
-6.507100e+00
-6.400911e+00
-6.408869e+00
-6.637518e+00
-6.761863e+00
-6.813297e+00
-6.859501e+00
-6.903645e+00
-6.948733e+00
-6.988464e+00
-7.017998e+00
-7.024849e+00
-6.967620e+00
-6.931551e+00
-6.847560e+00
-6.814384e+00
-6.817875e+00
-6.952808e+00
-6.399155e+00
-6.413709e+00
-6.368185e+00
-6.581667e+00
-6.695578e+00
-6.741671e+00
-6.784954e+00
-6.825191e+00
-6.862856e+00
-6.899633e+00
-6.929192e+00
-6.930753e+00
-6.875742e+00
-6.851478e+00
-6.779375e+00
-6.749123e+00
-6.750608e+00
-6.886266e+00
-6.281167e+00
-6.417795e+00
-6.334677e+00
-6.544752e+00
-6.655156e+00
-6.699330e+00
-6.737229e+00
-6.772262e+00
-6.806971e+00
-6.837381e+00
-6.861495e+00
-6.862724e+00
-6.816465e+00
-6.794530e+00
-6.727202e+00
-6.702422e+00
-6.702278e+00
-6.815086e+00
-6.148723e+00
-6.371657e+00
-6.303494e+00
-6.532865e+00
-6.633029e+00
-6.670899e+00
-6.699062e+00
-6.727725e+00
-6.753342e+00
-6.776732e+00
-6.795960e+00
-6.798926e+00
-6.760050e+00
-6.743061e+00
-6.692820e+00
-6.678341e+00
-6.674309e+00
-6.763844e+00
-6.026582e+00
-6.300330e+00
-6.299509e+00
-6.511743e+00
-6.611053e+00
-6.651077e+00
-6.677205e+00
-6.700560e+00
-6.720970e+00
-6.743497e+00
-6.763647e+00
-6.767597e+00
-6.732037e+00
-6.711080e+00
-6.667764e+00
-6.650657e+00
-6.644267e+00
-6.720498e+00
-5.930617e+00
-6.250600e+00
-6.321193e+00
-6.513454e+00
-6.581359e+00
-6.615169e+00
-6.642914e+00
-6.665739e+00
-6.687873e+00
-6.708538e+00
-6.728232e+00
-6.734608e+00
-6.699063e+00
-6.679898e+00
-6.633852e+00
-6.624803e+00
-6.617511e+00
-6.687033e+00
-5.859011e+00
-6.202308e+00
-6.332300e+00
-6.508265e+00
-6.578022e+00
-6.598370e+00
-6.617742e+00
-6.637963e+00
-6.656381e+00
-6.675878e+00
-6.692326e+00
-6.695191e+00
-6.659095e+00
-6.650727e+00
-6.615177e+00
-6.620578e+00
-6.611869e+00
-6.668187e+00
-5.804725e+00
-6.167618e+00
-6.330592e+00
-6.496919e+00
-6.565906e+00
-6.587201e+00
-6.602641e+00
-6.615762e+00
-6.632725e+00
-6.649133e+00
-6.662864e+00
-6.664804e+00
-6.630457e+00
-6.626894e+00
-6.604594e+00
-6.608811e+00
-6.599612e+00
-6.654865e+00
-5.753606e+00
-6.144038e+00
-6.317024e+00
-6.480809e+00
-6.551586e+00
-6.575115e+00
-6.588219e+00
-6.602447e+00
-6.615990e+00
-6.627209e+00
-6.642457e+00
-6.644649e+00
-6.609234e+00
-6.611756e+00
-6.594310e+00
-6.602852e+00
-6.595775e+00
-6.644336e+00
-5.699448e+00
-6.120602e+00
-6.301889e+00
-6.470979e+00
-6.539008e+00
-6.564569e+00
-6.581772e+00
-6.595379e+00
-6.606024e+00
-6.617569e+00
-6.624216e+00
-6.618307e+00
-6.586759e+00
-6.599524e+00
-6.585074e+00
-6.591470e+00
-6.584744e+00
-6.640698e+00
-5.641896e+00
-6.102718e+00
-6.291328e+00
-6.457716e+00
-6.522147e+00
-6.547477e+00
-6.563968e+00
-6.578704e+00
-6.592163e+00
-6.601608e+00
-6.609051e+00
-6.603319e+00
-6.570349e+00
-6.585662e+00
-6.568600e+00
-6.573636e+00
-6.566161e+00
-6.626040e+00
-5.582518e+00
-6.074272e+00
-6.276501e+00
-6.439302e+00
-6.498903e+00
-6.521773e+00
-6.538468e+00
-6.553674e+00
-6.566290e+00
-6.577210e+00
-6.584106e+00
-6.578403e+00
-6.546698e+00
-6.558110e+00
-6.538412e+00
-6.546105e+00
-6.536305e+00
-6.594382e+00
-5.505525e+00
-6.055352e+00
-6.250469e+00
-6.411414e+00
-6.467914e+00
-6.486791e+00
-6.498753e+00
-6.511539e+00
-6.524536e+00
-6.536974e+00
-6.545969e+00
-6.539929e+00
-6.506788e+00
-6.513894e+00
-6.496674e+00
-6.515461e+00
-6.502814e+00
-6.552391e+00
-5.451525e+00
-6.061350e+00
-6.242342e+00
-6.405147e+00
-6.465700e+00
-6.469350e+00
-6.472782e+00
-6.477814e+00
-6.484960e+00
-6.495405e+00
-6.505546e+00
-6.500535e+00
-6.465648e+00
-6.477664e+00
-6.482399e+00
-6.510148e+00
-6.498293e+00
-6.532148e+00
-5.510342e+00
-6.094419e+00
-6.295970e+00
-6.449903e+00
-6.508598e+00
-6.511551e+00
-6.509141e+00
-6.514343e+00
-6.520319e+00
-6.528080e+00
-6.533000e+00
-6.524097e+00
-6.490490e+00
-6.510736e+00
-6.516893e+00
-6.542807e+00
-6.539218e+00
-6.579715e+00
-5.299230e+00
-6.105011e+00
-6.365626e+00
-6.493015e+00
-6.540315e+00
-6.551282e+00
-6.558238e+00
-6.566588e+00
-6.576238e+00
-6.587660e+00
-6.594989e+00
-6.586934e+00
-6.546078e+00
-6.560304e+00
-6.557203e+00
-6.576073e+00
-6.594723e+00
-6.574759e+00
-5.198397e+00
-5.910671e+00
-6.286875e+00
-6.388619e+00
-6.434251e+00
-6.455542e+00
-6.472415e+00
-6.487377e+00
-6.500955e+00
-6.510829e+00
-6.515383e+00
-6.504252e+00
-6.470466e+00
-6.499286e+00
-6.479708e+00
-6.487038e+00
-6.456193e+00
-6.436914e+00
-5.721672e+00
-6.198861e+00
-6.363424e+00
-6.463778e+00
-6.510300e+00
-6.531313e+00
-6.547628e+00
-6.558715e+00
-6.570813e+00
-6.582073e+00
-6.588596e+00
-6.580083e+00
-6.541602e+00
-6.574997e+00
-6.564920e+00
-6.572542e+00
-6.552955e+00
-6.475742e+00
-6.057613e+00
-6.324021e+00
-6.410557e+00
-6.505086e+00
-6.549476e+00
-6.571109e+00
-6.587977e+00
-6.599570e+00
-6.611496e+00
-6.622013e+00
-6.626741e+00
-6.615782e+00
-6.578838e+00
-6.613889e+00
-6.601811e+00
-6.613552e+00
-6.601144e+00
-6.535507e+00
-6.120721e+00
-6.341442e+00
-6.422148e+00
-6.506519e+00
-6.547499e+00
-6.567554e+00
-6.585044e+00
-6.599936e+00
-6.609707e+00
-6.620622e+00
-6.626538e+00
-6.614333e+00
-6.576715e+00
-6.611158e+00
-6.599870e+00
-6.613372e+00
-6.606876e+00
-6.546291e+00
-6.098126e+00
-6.334396e+00
-6.418950e+00
-6.494281e+00
-6.532752e+00
-6.552213e+00
-6.568273e+00
-6.582584e+00
-6.595612e+00
-6.605803e+00
-6.612779e+00
-6.601879e+00
-6.563159e+00
-6.598614e+00
-6.588000e+00
-6.601469e+00
-6.598751e+00
-6.542259e+00
-6.033935e+00
-6.225682e+00
-6.350141e+00
-6.431851e+00
-6.478842e+00
-6.496745e+00
-6.512313e+00
-6.527967e+00
-6.545077e+00
-6.563024e+00
-6.576105e+00
-6.568066e+00
-6.532029e+00
-6.563108e+00
-6.555643e+00
-6.569118e+00
-6.563457e+00
-6.518848e+00
-5.301334e+00
-6.059711e+00
-6.139550e+00
-6.290454e+00
-6.338279e+00
-6.365978e+00
-6.383307e+00
-6.404305e+00
-6.436579e+00
-6.478187e+00
-6.518635e+00
-6.527612e+00
-6.488205e+00
-6.516533e+00
-6.498104e+00
-6.539445e+00
-6.513104e+00
-6.455474e+00
-4.778889e+00
-5.774934e+00
-5.936717e+00
-6.094217e+00
-6.187955e+00
-6.214819e+00
-6.246570e+00
-6.288722e+00
-6.363099e+00
-6.411747e+00
-6.465101e+00
-6.501126e+00
-6.495850e+00
-6.497405e+00
-6.514363e+00
-6.544763e+00
-6.527381e+00
-6.442056e+00
-5.122833e+00
-4.631876e+00
-5.106390e+00
-5.686239e+00
-5.793726e+00
-5.852972e+00
-5.903895e+00
-5.993882e+00
-6.065954e+00
-6.156815e+00
-6.329461e+00
-6.480395e+00
-6.523770e+00
-6.462280e+00
-6.397013e+00
-6.385981e+00
-6.445312e+00
-6.447534e+00
-5.558434e+00
-6.348564e+00
-6.119067e+00
-6.457497e+00
-6.448819e+00
-6.443350e+00
-6.441913e+00
-6.441952e+00
-6.441685e+00
-6.441111e+00
-6.440405e+00
-6.439489e+00
-6.439456e+00
-6.440775e+00
-6.442325e+00
-6.443480e+00
-6.445898e+00
-6.453089e+00
-6.463157e+00
-6.473636e+00
-6.484912e+00
-6.497921e+00
-6.511902e+00
-6.526456e+00
-6.542831e+00
-6.559789e+00
-6.576163e+00
-6.592875e+00
-6.611389e+00
-6.630827e+00
-6.649662e+00
-6.666807e+00
-6.683735e+00
-6.700431e+00
-6.717921e+00
-6.735657e+00
-6.754855e+00
-6.775298e+00
-6.794920e+00
-6.817571e+00
-6.842167e+00
-6.866373e+00
-6.891682e+00
-6.918575e+00
-6.947219e+00
-6.976073e+00
-7.006379e+00
-7.035732e+00
-7.064539e+00
-7.091475e+00
-7.118495e+00
-7.147582e+00
-7.177635e+00
-7.206902e+00
-7.237542e+00
-7.268570e+00
-7.301346e+00
-7.335788e+00
-7.372337e+00
-7.409917e+00
-7.449188e+00
-7.487763e+00
-7.524644e+00
-7.560387e+00
-7.595845e+00
-7.632618e+00
-7.667304e+00
-7.700190e+00
-7.732129e+00
-7.764085e+00
-7.794507e+00
-7.821970e+00
-7.847178e+00
-7.869148e+00
-7.888235e+00
-7.902895e+00
-7.915221e+00
-7.925432e+00
-7.935078e+00
-7.943232e+00
-7.949288e+00
-7.954330e+00
-7.955057e+00
-7.953309e+00
-7.946437e+00
-7.931145e+00
-7.914303e+00
-7.894399e+00
-7.867512e+00
-7.833359e+00
-7.788895e+00
-7.737441e+00
-7.674875e+00
-7.604802e+00
-7.518572e+00
-7.424714e+00
-7.319642e+00
-7.214018e+00
-7.104542e+00
-6.989037e+00
-6.869863e+00
-6.746257e+00
-6.633144e+00
-6.525764e+00
-6.414082e+00
-6.291456e+00
-6.159665e+00
-6.020748e+00
-5.868387e+00
-5.704079e+00
-5.517589e+00
-5.307210e+00
-5.076812e+00
-4.817446e+00
-4.542115e+00
-4.257347e+00
-3.958035e+00
-3.646976e+00
-3.321532e+00
-2.986457e+00
-2.652825e+00
-2.298867e+00
-1.948909e+00
-1.603871e+00
-1.258763e+00
-9.212609e-01
-5.789189e-01
-2.121596e-01
1.590762e-01
5.081258e-01
8.264466e-01
1.140884e+00
1.434414e+00
1.724499e+00
2.019507e+00
2.313022e+00
2.605561e+00
2.908691e+00
3.209115e+00
3.509855e+00
3.800610e+00
4.091521e+00
4.370426e+00
4.640172e+00
4.914891e+00
5.173438e+00
5.414593e+00
5.653484e+00
5.896681e+00
6.160613e+00
6.442541e+00
6.737350e+00
7.014308e+00
7.248199e+00
7.455564e+00
7.649734e+00
7.837326e+00
8.014494e+00
8.172012e+00
8.319855e+00
8.460061e+00
8.591360e+00
8.711007e+00
8.831377e+00
8.951454e+00
9.063688e+00
9.170413e+00
9.271713e+00
9.366391e+00
9.450593e+00
9.528426e+00
9.622058e+00
9.803807e+00
1.010311e+01
9.971656e+00
8.435112e+00
5.984537e+00
4.322547e+00
4.986285e+00
7.176859e+00
-6.330639e+00
-6.667602e+00
-6.835583e+00
-6.868865e+00
-6.891095e+00
-6.888725e+00
-6.880064e+00
-6.871130e+00
-6.862463e+00
-6.854131e+00
-6.845708e+00
-6.840483e+00
-6.835265e+00
-6.830104e+00
-6.826511e+00
-6.823923e+00
-6.822010e+00
-6.820638e+00
-6.819614e+00
-6.818975e+00
-6.818257e+00
-6.817068e+00
-6.815879e+00
-6.815473e+00
-6.819603e+00
-6.825314e+00
-6.831222e+00
-6.837796e+00
-6.846698e+00
-6.857719e+00
-6.872744e+00
-6.888505e+00
-6.904256e+00
-6.921160e+00
-6.936659e+00
-6.952214e+00
-6.969031e+00
-6.987404e+00
-7.006926e+00
-7.027297e+00
-7.047386e+00
-7.067351e+00
-7.086211e+00
-7.105891e+00
-7.126239e+00
-7.147737e+00
-7.168227e+00
-7.191109e+00
-7.215579e+00
-7.241415e+00
-7.267420e+00
-7.292555e+00
-7.317799e+00
-7.344870e+00
-7.373163e+00
-7.401999e+00
-7.429644e+00
-7.457124e+00
-7.484100e+00
-7.512538e+00
-7.541281e+00
-7.573882e+00
-7.607255e+00
-7.640870e+00
-7.675572e+00
-7.708060e+00
-7.739998e+00
-7.768280e+00
-7.794438e+00
-7.819026e+00
-7.841818e+00
-7.862244e+00
-7.881245e+00
-7.901309e+00
-7.919966e+00
-7.937281e+00
-7.951793e+00
-7.966667e+00
-7.980736e+00
-7.990605e+00
-7.996549e+00
-7.998772e+00
-7.995634e+00
-7.987119e+00
-7.974508e+00
-7.958094e+00
-7.938749e+00
-7.915694e+00
-7.888733e+00
-7.856625e+00
-7.817088e+00
-7.774499e+00
-7.738752e+00
-7.703859e+00
-7.659576e+00
-7.608504e+00
-7.551483e+00
-7.488367e+00
-7.414464e+00
-7.331502e+00
-7.236605e+00
-7.135157e+00
-7.032766e+00
-6.915657e+00
-6.788615e+00
-6.660383e+00
-6.528145e+00
-6.389994e+00
-6.243294e+00
-6.079894e+00
-5.913244e+00
-5.737140e+00
-5.545544e+00
-5.333888e+00
-5.092560e+00
-4.847243e+00
-4.586473e+00
-4.316569e+00
-4.011595e+00
-3.673458e+00
-3.344995e+00
-3.048141e+00
-2.771695e+00
-2.491363e+00
-2.199244e+00
-1.904020e+00
-1.595352e+00
-1.279385e+00
-9.467849e-01
-6.128744e-01
-2.783411e-01
7.064131e-02
4.345698e-01
7.956128e-01
1.154543e+00
1.504723e+00
1.861741e+00
2.223260e+00
2.567992e+00
2.894018e+00
3.200958e+00
3.493612e+00
3.782606e+00
4.070932e+00
4.355488e+00
4.636103e+00
4.909110e+00
5.180446e+00
5.456555e+00
5.735456e+00
6.001369e+00
6.268336e+00
6.535987e+00
6.781089e+00
7.006475e+00
7.217723e+00
7.423372e+00
7.609486e+00
7.784522e+00
7.942830e+00
8.084792e+00
8.221582e+00
8.349919e+00
8.471075e+00
8.581100e+00
8.678230e+00
8.767504e+00
8.852636e+00
8.928256e+00
8.997394e+00
9.063248e+00
9.135885e+00
9.276192e+00
9.533091e+00
9.452748e+00
8.199501e+00
7.162293e+00
7.289629e+00
8.310916e+00
1.055489e+01
-6.053126e+00
-6.763567e+00
-6.696622e+00
-6.755516e+00
-6.777914e+00
-6.773939e+00
-6.766069e+00
-6.758476e+00
-6.750842e+00
-6.743492e+00
-6.737087e+00
-6.732376e+00
-6.729445e+00
-6.727505e+00
-6.726092e+00
-6.725952e+00
-6.726015e+00
-6.726356e+00
-6.727845e+00
-6.731288e+00
-6.734953e+00
-6.738828e+00
-6.743096e+00
-6.747056e+00
-6.751451e+00
-6.756049e+00
-6.759635e+00
-6.762494e+00
-6.765782e+00
-6.771928e+00
-6.779218e+00
-6.790020e+00
-6.804287e+00
-6.820841e+00
-6.838643e+00
-6.857078e+00
-6.877856e+00
-6.899412e+00
-6.920266e+00
-6.941729e+00
-6.963959e+00
-6.984685e+00
-7.004440e+00
-7.024049e+00
-7.042849e+00
-7.064651e+00
-7.089987e+00
-7.117194e+00
-7.145126e+00
-7.176394e+00
-7.209518e+00
-7.242462e+00
-7.275304e+00
-7.308559e+00
-7.343196e+00
-7.375629e+00
-7.408786e+00
-7.439739e+00
-7.468322e+00
-7.494903e+00
-7.521423e+00
-7.548718e+00
-7.579564e+00
-7.611502e+00
-7.644501e+00
-7.678874e+00
-7.715397e+00
-7.750099e+00
-7.783429e+00
-7.814915e+00
-7.842756e+00
-7.869334e+00
-7.893508e+00
-7.917212e+00
-7.938752e+00
-7.957461e+00
-7.976547e+00
-7.993154e+00
-8.002801e+00
-8.008051e+00
-8.005486e+00
-7.995306e+00
-7.980190e+00
-7.960717e+00
-7.936152e+00
-7.905510e+00
-7.869624e+00
-7.830356e+00
-7.789491e+00
-7.748052e+00
-7.702460e+00
-7.651961e+00
-7.599499e+00
-7.545861e+00
-7.487043e+00
-7.423517e+00
-7.349794e+00
-7.265060e+00
-7.179272e+00
-7.096654e+00
-7.009835e+00
-6.915120e+00
-6.816016e+00
-6.705287e+00
-6.589610e+00
-6.476715e+00
-6.361809e+00
-6.226630e+00
-6.071229e+00
-5.896241e+00
-5.705674e+00
-5.492340e+00
-5.269909e+00
-5.062804e+00
-4.844025e+00
-4.615296e+00
-4.396106e+00
-4.167753e+00
-3.917984e+00
-3.649295e+00
-3.372928e+00
-3.102211e+00
-2.845463e+00
-2.584752e+00
-2.326331e+00
-2.061260e+00
-1.807008e+00
-1.540953e+00
-1.243363e+00
-9.322359e-01
-6.107981e-01
-2.875374e-01
5.441200e-02
3.885587e-01
7.367519e-01
1.098407e+00
1.462483e+00
1.823785e+00
2.172613e+00
2.522219e+00
2.847186e+00
3.158103e+00
3.471199e+00
3.774927e+00
4.072682e+00
4.358913e+00
4.635351e+00
4.914647e+00
5.169245e+00
5.397829e+00
5.612743e+00
5.828896e+00
6.042874e+00
6.246998e+00
6.444399e+00
6.636472e+00
6.829287e+00
7.011419e+00
7.202213e+00
7.385306e+00
7.567587e+00
7.737520e+00
7.901366e+00
8.059835e+00
8.217215e+00
8.364574e+00
8.511500e+00
8.654464e+00
8.785978e+00
8.907495e+00
9.019976e+00
9.136077e+00
9.332016e+00
9.651480e+00
9.657765e+00
7.746867e+00
7.092835e+00
7.819133e+00
9.291334e+00
1.163734e+01
-6.407454e+00
-6.805564e+00
-6.752953e+00
-6.881548e+00
-6.920173e+00
-6.923711e+00
-6.921487e+00
-6.921773e+00
-6.922968e+00
-6.924469e+00
-6.926017e+00
-6.927755e+00
-6.929766e+00
-6.932663e+00
-6.937027e+00
-6.941355e+00
-6.944338e+00
-6.946676e+00
-6.950210e+00
-6.953850e+00
-6.959408e+00
-6.965401e+00
-6.972449e+00
-6.980081e+00
-6.987276e+00
-6.993602e+00
-6.999020e+00
-7.006366e+00
-7.016380e+00
-7.027911e+00
-7.039578e+00
-7.050323e+00
-7.060490e+00
-7.068452e+00
-7.075567e+00
-7.085455e+00
-7.097827e+00
-7.114558e+00
-7.133055e+00
-7.152549e+00
-7.171977e+00
-7.193929e+00
-7.218122e+00
-7.243125e+00
-7.265327e+00
-7.288388e+00
-7.312544e+00
-7.340084e+00
-7.365621e+00
-7.391499e+00
-7.418258e+00
-7.447024e+00
-7.478515e+00
-7.513755e+00
-7.551845e+00
-7.588890e+00
-7.625390e+00
-7.661225e+00
-7.694845e+00
-7.727429e+00
-7.758589e+00
-7.787788e+00
-7.815383e+00
-7.847894e+00
-7.881911e+00
-7.915613e+00
-7.947661e+00
-7.980519e+00
-8.012023e+00
-8.041813e+00
-8.071550e+00
-8.101369e+00
-8.131372e+00
-8.159661e+00
-8.184247e+00
-8.205171e+00
-8.224433e+00
-8.237967e+00
-8.246545e+00
-8.249532e+00
-8.246545e+00
-8.236973e+00
-8.221489e+00
-8.200240e+00
-8.172573e+00
-8.140068e+00
-8.105778e+00
-8.070379e+00
-8.032736e+00
-7.990931e+00
-7.945723e+00
-7.893880e+00
-7.835691e+00
-7.770160e+00
-7.695338e+00
-7.615869e+00
-7.533810e+00
-7.443118e+00
-7.352299e+00
-7.256544e+00
-7.160671e+00
-7.046695e+00
-6.922800e+00
-6.790808e+00
-6.659700e+00
-6.543404e+00
-6.437175e+00
-6.330399e+00
-6.216611e+00
-6.087171e+00
-5.940343e+00
-5.777744e+00
-5.591412e+00
-5.391044e+00
-5.191488e+00
-4.987848e+00
-4.780640e+00
-4.560888e+00
-4.323487e+00
-4.050740e+00
-3.765494e+00
-3.487117e+00
-3.222513e+00
-2.954919e+00
-2.686345e+00
-2.415368e+00
-2.127364e+00
-1.834332e+00
-1.523547e+00
-1.200588e+00
-8.856580e-01
-5.647517e-01
-2.241094e-01
1.264152e-01
4.700161e-01
8.271032e-01
1.194704e+00
1.548999e+00
1.909853e+00
2.292082e+00
2.663799e+00
3.033137e+00
3.402176e+00
3.743173e+00
4.058486e+00
4.352716e+00
4.637985e+00
4.910556e+00
5.171247e+00
5.424489e+00
5.672378e+00
5.919084e+00
6.150661e+00
6.376028e+00
6.586857e+00
6.798705e+00
7.013529e+00
7.230490e+00
7.432409e+00
7.630812e+00
7.828994e+00
8.024820e+00
8.224445e+00
8.426783e+00
8.627551e+00
8.828204e+00
9.022024e+00
9.209141e+00
9.392238e+00
9.563566e+00
9.726186e+00
9.886532e+00
1.008818e+01
1.043129e+01
1.028091e+01
7.833087e+00
7.018020e+00
7.891243e+00
9.507792e+00
1.239605e+01
-6.512013e+00
-6.832454e+00
-6.793419e+00
-6.934470e+00
-6.976352e+00
-6.982699e+00
-6.986264e+00
-6.990264e+00
-6.994894e+00
-6.999953e+00
-7.005487e+00
-7.013263e+00
-7.021594e+00
-7.030963e+00
-7.040807e+00
-7.051014e+00
-7.060206e+00
-7.068224e+00
-7.076750e+00
-7.085967e+00
-7.095028e+00
-7.102562e+00
-7.109974e+00
-7.117641e+00
-7.124124e+00
-7.128259e+00
-7.131560e+00
-7.135926e+00
-7.140328e+00
-7.145540e+00
-7.151561e+00
-7.157875e+00
-7.164287e+00
-7.170284e+00
-7.177374e+00
-7.185640e+00
-7.194236e+00
-7.205156e+00
-7.218100e+00
-7.232650e+00
-7.250445e+00
-7.269243e+00
-7.288124e+00
-7.309084e+00
-7.330983e+00
-7.350104e+00
-7.369439e+00
-7.389633e+00
-7.417247e+00
-7.448769e+00
-7.482768e+00
-7.518278e+00
-7.553552e+00
-7.586363e+00
-7.618289e+00
-7.651291e+00
-7.684263e+00
-7.714796e+00
-7.744601e+00
-7.774674e+00
-7.804303e+00
-7.835987e+00
-7.868841e+00
-7.901202e+00
-7.932983e+00
-7.963057e+00
-7.991193e+00
-8.020313e+00
-8.048034e+00
-8.072764e+00
-8.097636e+00
-8.122038e+00
-8.142872e+00
-8.159476e+00
-8.172739e+00
-8.187050e+00
-8.198654e+00
-8.210748e+00
-8.216821e+00
-8.217541e+00
-8.212661e+00
-8.202141e+00
-8.188028e+00
-8.173775e+00
-8.154766e+00
-8.128672e+00
-8.099373e+00
-8.064838e+00
-8.026312e+00
-7.986768e+00
-7.942866e+00
-7.895073e+00
-7.838503e+00
-7.773410e+00
-7.700219e+00
-7.617807e+00
-7.531737e+00
-7.442012e+00
-7.344082e+00
-7.237779e+00
-7.130316e+00
-7.015197e+00
-6.883416e+00
-6.750491e+00
-6.630650e+00
-6.530229e+00
-6.443747e+00
-6.355386e+00
-6.261472e+00
-6.146151e+00
-6.016457e+00
-5.875668e+00
-5.716554e+00
-5.541657e+00
-5.364037e+00
-5.172574e+00
-4.950169e+00
-4.716820e+00
-4.457151e+00
-4.194288e+00
-3.925448e+00
-3.645747e+00
-3.371570e+00
-3.112885e+00
-2.859454e+00
-2.582710e+00
-2.290585e+00
-1.973902e+00
-1.653947e+00
-1.342492e+00
-1.019155e+00
-6.825735e-01
-3.258087e-01
4.820358e-02
4.352997e-01
8.155128e-01
1.194298e+00
1.567685e+00
1.943746e+00
2.326153e+00
2.700532e+00
3.072666e+00
3.430869e+00
3.753029e+00
4.051585e+00
4.346071e+00
4.632638e+00
4.910176e+00
5.162561e+00
5.401314e+00
5.640051e+00
5.875168e+00
6.102009e+00
6.314918e+00
6.533895e+00
6.760026e+00
6.993567e+00
7.226342e+00
7.441167e+00
7.645520e+00
7.850391e+00
8.060943e+00
8.275750e+00
8.493361e+00
8.701521e+00
8.904206e+00
9.100982e+00
9.286261e+00
9.462328e+00
9.631841e+00
9.798823e+00
9.969967e+00
1.017997e+01
1.052123e+01
1.043188e+01
7.749204e+00
7.053879e+00
8.070797e+00
9.820530e+00
1.280457e+01
-6.602781e+00
-6.811964e+00
-6.808913e+00
-6.975782e+00
-7.026226e+00
-7.036902e+00
-7.042076e+00
-7.047222e+00
-7.053619e+00
-7.064211e+00
-7.074753e+00
-7.084863e+00
-7.095887e+00
-7.106206e+00
-7.116980e+00
-7.127161e+00
-7.137146e+00
-7.147212e+00
-7.156288e+00
-7.164298e+00
-7.173301e+00
-7.184130e+00
-7.193341e+00
-7.200076e+00
-7.204459e+00
-7.208308e+00
-7.211996e+00
-7.217122e+00
-7.222192e+00
-7.229106e+00
-7.236416e+00
-7.243505e+00
-7.251000e+00
-7.258749e+00
-7.265734e+00
-7.273011e+00
-7.282767e+00
-7.294060e+00
-7.308513e+00
-7.325367e+00
-7.343786e+00
-7.360650e+00
-7.374774e+00
-7.390468e+00
-7.405800e+00
-7.424787e+00
-7.446543e+00
-7.469704e+00
-7.496183e+00
-7.522765e+00
-7.551792e+00
-7.580035e+00
-7.607216e+00
-7.635757e+00
-7.665047e+00
-7.696466e+00
-7.726692e+00
-7.757330e+00
-7.785564e+00
-7.812415e+00
-7.837972e+00
-7.869835e+00
-7.903232e+00
-7.932110e+00
-7.958118e+00
-7.980188e+00
-7.999307e+00
-8.016912e+00
-8.034691e+00
-8.053136e+00
-8.067887e+00
-8.082073e+00
-8.095378e+00
-8.107981e+00
-8.117586e+00
-8.125423e+00
-8.130353e+00
-8.132437e+00
-8.131560e+00
-8.131734e+00
-8.132591e+00
-8.129880e+00
-8.124757e+00
-8.114135e+00
-8.101360e+00
-8.082958e+00
-8.058183e+00
-8.030496e+00
-7.999967e+00
-7.963977e+00
-7.918813e+00
-7.868675e+00
-7.816379e+00
-7.757508e+00
-7.691313e+00
-7.627354e+00
-7.562029e+00
-7.482792e+00
-7.388557e+00
-7.277475e+00
-7.150558e+00
-7.020822e+00
-6.891317e+00
-6.760951e+00
-6.645192e+00
-6.553909e+00
-6.468797e+00
-6.385610e+00
-6.287534e+00
-6.173364e+00
-6.051838e+00
-5.917069e+00
-5.768801e+00
-5.617788e+00
-5.448754e+00
-5.250539e+00
-5.023248e+00
-4.780840e+00
-4.514460e+00
-4.236766e+00
-3.948484e+00
-3.656256e+00
-3.368229e+00
-3.078187e+00
-2.776929e+00
-2.467911e+00
-2.151600e+00
-1.851324e+00
-1.537469e+00
-1.208221e+00
-8.743316e-01
-5.281462e-01
-1.788501e-01
1.965226e-01
5.781792e-01
9.632036e-01
1.336152e+00
1.684144e+00
2.025729e+00
2.355132e+00
2.690195e+00
3.030829e+00
3.354673e+00
3.666819e+00
3.974303e+00
4.281817e+00
4.565646e+00
4.834476e+00
5.072500e+00
5.312314e+00
5.541890e+00
5.773534e+00
5.999768e+00
6.208198e+00
6.421715e+00
6.646536e+00
6.897090e+00
7.152152e+00
7.389598e+00
7.607105e+00
7.821096e+00
8.023482e+00
8.221395e+00
8.418249e+00
8.615798e+00
8.807621e+00
8.993856e+00
9.170492e+00
9.338456e+00
9.497880e+00
9.653064e+00
9.810241e+00
1.001493e+01
1.039676e+01
1.039858e+01
7.720413e+00
7.248866e+00
8.459688e+00
1.017419e+01
1.311951e+01
-6.670020e+00
-6.788554e+00
-6.835331e+00
-7.029518e+00
-7.081468e+00
-7.091858e+00
-7.096961e+00
-7.101703e+00
-7.106869e+00
-7.112475e+00
-7.118500e+00
-7.127796e+00
-7.137656e+00
-7.148654e+00
-7.160893e+00
-7.172220e+00
-7.183739e+00
-7.195062e+00
-7.207303e+00
-7.220138e+00
-7.230691e+00
-7.239572e+00
-7.247754e+00
-7.256705e+00
-7.264889e+00
-7.272696e+00
-7.280233e+00
-7.287687e+00
-7.297603e+00
-7.308682e+00
-7.317851e+00
-7.327733e+00
-7.339859e+00
-7.351850e+00
-7.365398e+00
-7.378706e+00
-7.390640e+00
-7.403373e+00
-7.415188e+00
-7.426706e+00
-7.438537e+00
-7.450709e+00
-7.464013e+00
-7.477868e+00
-7.495724e+00
-7.516486e+00
-7.538198e+00
-7.559414e+00
-7.577973e+00
-7.596043e+00
-7.609828e+00
-7.630092e+00
-7.655254e+00
-7.684258e+00
-7.715695e+00
-7.746611e+00
-7.777229e+00
-7.809169e+00
-7.838742e+00
-7.865741e+00
-7.890290e+00
-7.916083e+00
-7.940612e+00
-7.960755e+00
-7.979571e+00
-7.994675e+00
-8.007131e+00
-8.017482e+00
-8.025433e+00
-8.032899e+00
-8.043978e+00
-8.054603e+00
-8.061939e+00
-8.063206e+00
-8.061191e+00
-8.058044e+00
-8.061361e+00
-8.068098e+00
-8.074758e+00
-8.080495e+00
-8.081329e+00
-8.084116e+00
-8.082425e+00
-8.072748e+00
-8.062253e+00
-8.049714e+00
-8.032119e+00
-8.008995e+00
-7.982382e+00
-7.952989e+00
-7.914459e+00
-7.874601e+00
-7.837823e+00
-7.800948e+00
-7.753646e+00
-7.697161e+00
-7.626516e+00
-7.538559e+00
-7.438778e+00
-7.322142e+00
-7.199679e+00
-7.072377e+00
-6.942358e+00
-6.813326e+00
-6.701897e+00
-6.608934e+00
-6.517808e+00
-6.415870e+00
-6.304082e+00
-6.183154e+00
-6.047082e+00
-5.906975e+00
-5.759423e+00
-5.610832e+00
-5.445199e+00
-5.244170e+00
-5.007334e+00
-4.749165e+00
-4.467648e+00
-4.183546e+00
-3.894743e+00
-3.589512e+00
-3.272899e+00
-2.935080e+00
-2.597928e+00
-2.264132e+00
-1.934818e+00
-1.637864e+00
-1.335781e+00
-1.009822e+00
-6.640087e-01
-3.131434e-01
3.731999e-02
3.925593e-01
7.492357e-01
1.080567e+00
1.378551e+00
1.675925e+00
1.991098e+00
2.295197e+00
2.596969e+00
2.902304e+00
3.198163e+00
3.506148e+00
3.815314e+00
4.132870e+00
4.433711e+00
4.720967e+00
4.990994e+00
5.248258e+00
5.502982e+00
5.752906e+00
5.972737e+00
6.190641e+00
6.425365e+00
6.679536e+00
6.929961e+00
7.168487e+00
7.402274e+00
7.617916e+00
7.810908e+00
7.979052e+00
8.140545e+00
8.305391e+00
8.477387e+00
8.650997e+00
8.828497e+00
8.995857e+00
9.158193e+00
9.316033e+00
9.475733e+00
9.637274e+00
9.841503e+00
1.026343e+01
1.030788e+01
7.708693e+00
7.442784e+00
8.787819e+00
1.051131e+01
1.337358e+01
-6.738491e+00
-6.764086e+00
-6.851715e+00
-7.077898e+00
-7.131509e+00
-7.141409e+00
-7.146953e+00
-7.152691e+00
-7.159563e+00
-7.166953e+00
-7.173227e+00
-7.178639e+00
-7.186175e+00
-7.195343e+00
-7.204435e+00
-7.212953e+00
-7.221854e+00
-7.231040e+00
-7.241658e+00
-7.252628e+00
-7.263294e+00
-7.273153e+00
-7.283361e+00
-7.294747e+00
-7.305855e+00
-7.316486e+00
-7.327103e+00
-7.338286e+00
-7.352141e+00
-7.366209e+00
-7.379147e+00
-7.390842e+00
-7.402888e+00
-7.412991e+00
-7.422972e+00
-7.433650e+00
-7.445998e+00
-7.460650e+00
-7.475986e+00
-7.489840e+00
-7.504619e+00
-7.521274e+00
-7.538497e+00
-7.556441e+00
-7.574998e+00
-7.591703e+00
-7.606959e+00
-7.624199e+00
-7.641368e+00
-7.654933e+00
-7.668730e+00
-7.684732e+00
-7.703258e+00
-7.726291e+00
-7.757226e+00
-7.790376e+00
-7.819931e+00
-7.850508e+00
-7.881051e+00
-7.908841e+00
-7.933200e+00
-7.956016e+00
-7.976024e+00
-7.992400e+00
-8.003956e+00
-8.011445e+00
-8.016313e+00
-8.019026e+00
-8.023344e+00
-8.027816e+00
-8.030129e+00
-8.033057e+00
-8.032972e+00
-8.034599e+00
-8.035946e+00
-8.037233e+00
-8.038473e+00
-8.046038e+00
-8.053759e+00
-8.060782e+00
-8.065604e+00
-8.066893e+00
-8.070182e+00
-8.075123e+00
-8.074786e+00
-8.067506e+00
-8.052024e+00
-8.033251e+00
-8.019826e+00
-8.003884e+00
-7.988174e+00
-7.971520e+00
-7.954717e+00
-7.931409e+00
-7.889919e+00
-7.832375e+00
-7.754758e+00
-7.658739e+00
-7.552321e+00
-7.435211e+00
-7.302500e+00
-7.157691e+00
-7.019436e+00
-6.897844e+00
-6.786268e+00
-6.682838e+00
-6.581706e+00
-6.473995e+00
-6.351099e+00
-6.208882e+00
-6.053061e+00
-5.894360e+00
-5.718890e+00
-5.541890e+00
-5.351579e+00
-5.139309e+00
-4.894780e+00
-4.628483e+00
-4.337642e+00
-4.047768e+00
-3.765065e+00
-3.461860e+00
-3.144161e+00
-2.810909e+00
-2.467743e+00
-2.132627e+00
-1.802794e+00
-1.493398e+00
-1.173007e+00
-8.342445e-01
-5.020875e-01
-1.992784e-01
9.751831e-02
3.999698e-01
7.158456e-01
1.030567e+00
1.338200e+00
1.611264e+00
1.881836e+00
2.171998e+00
2.456857e+00
2.736483e+00
3.020602e+00
3.316345e+00
3.619925e+00
3.945274e+00
4.274162e+00
4.578404e+00
4.889184e+00
5.167252e+00
5.437448e+00
5.706546e+00
5.948708e+00
6.185435e+00
6.433930e+00
6.682805e+00
6.924978e+00
7.164160e+00
7.387249e+00
7.596006e+00
7.783643e+00
7.942593e+00
8.084033e+00
8.227858e+00
8.375224e+00
8.529104e+00
8.683306e+00
8.839951e+00
8.999311e+00
9.154126e+00
9.305059e+00
9.461973e+00
9.672170e+00
1.008574e+01
1.018080e+01
7.712762e+00
7.577903e+00
9.020120e+00
1.081099e+01
1.361523e+01
-6.817632e+00
-6.741172e+00
-6.884413e+00
-7.129192e+00
-7.187993e+00
-7.195886e+00
-7.198838e+00
-7.200864e+00
-7.204867e+00
-7.209373e+00
-7.214040e+00
-7.220013e+00
-7.225678e+00
-7.234228e+00
-7.245468e+00
-7.256618e+00
-7.269149e+00
-7.281712e+00
-7.293895e+00
-7.305193e+00
-7.315166e+00
-7.323956e+00
-7.333649e+00
-7.343677e+00
-7.353282e+00
-7.361643e+00
-7.371352e+00
-7.381771e+00
-7.393924e+00
-7.405089e+00
-7.416167e+00
-7.425934e+00
-7.437960e+00
-7.447654e+00
-7.456345e+00
-7.465607e+00
-7.477365e+00
-7.493649e+00
-7.511739e+00
-7.531325e+00
-7.550719e+00
-7.570578e+00
-7.588591e+00
-7.604724e+00
-7.621032e+00
-7.637022e+00
-7.651464e+00
-7.661433e+00
-7.671362e+00
-7.683917e+00
-7.700104e+00
-7.722231e+00
-7.748338e+00
-7.773750e+00
-7.800413e+00
-7.831682e+00
-7.862424e+00
-7.890077e+00
-7.915929e+00
-7.936131e+00
-7.952428e+00
-7.967357e+00
-7.983435e+00
-7.997014e+00
-8.008061e+00
-8.017414e+00
-8.021806e+00
-8.029847e+00
-8.036218e+00
-8.042084e+00
-8.046980e+00
-8.050961e+00
-8.054999e+00
-8.059801e+00
-8.062035e+00
-8.065833e+00
-8.072039e+00
-8.078981e+00
-8.083752e+00
-8.085935e+00
-8.088657e+00
-8.098096e+00
-8.105152e+00
-8.119663e+00
-8.135372e+00
-8.142406e+00
-8.138814e+00
-8.132811e+00
-8.128029e+00
-8.121759e+00
-8.113233e+00
-8.104087e+00
-8.091383e+00
-8.059859e+00
-8.009256e+00
-7.933807e+00
-7.854622e+00
-7.767917e+00
-7.661985e+00
-7.535697e+00
-7.388047e+00
-7.247632e+00
-7.113705e+00
-6.990347e+00
-6.869620e+00
-6.744590e+00
-6.616614e+00
-6.485720e+00
-6.345211e+00
-6.194569e+00
-6.032925e+00
-5.856782e+00
-5.659136e+00
-5.458146e+00
-5.253111e+00
-5.027062e+00
-4.780985e+00
-4.504375e+00
-4.207931e+00
-3.921096e+00
-3.632886e+00
-3.336354e+00
-3.038505e+00
-2.723533e+00
-2.408344e+00
-2.096870e+00
-1.783385e+00
-1.475335e+00