/*--------------------------------*- C++ -*----------------------------------*\
| =========                 |                                                 |
| \\      /  F ield         | OpenFOAM: The Open Source CFD Toolbox           |
|  \\    /   O peration     | Version:  v2406                                 |
|   \\  /    A nd           | Website:  www.openfoam.com                      |
|    \\/     M anipulation  |                                                 |
\*---------------------------------------------------------------------------*/
FoamFile
{
    version     2.0;
    format      ascii;
    class       volVectorField;
    location    "predicted";
    object      U;
}
// * * * * * * * * * * * * * * * * * * * * * * * * * * * * * * * * * * * * * //

dimensions      [0 1 -1 0 0 0 0];

internalField   nonuniform List<vector>
49181
(
(6.162339e+00 2.572077e-03 -1.873466e-01)
(6.815101e+00 -6.161752e-02 -3.420863e-02)
(6.969378e+00 -3.535377e-03 -1.019159e-01)
(6.951896e+00 1.500903e-02 -1.130720e-01)
(6.901946e+00 2.194723e-02 -1.226221e-01)
(6.861123e+00 2.373179e-02 -1.253435e-01)
(6.818275e+00 2.540359e-02 -1.283632e-01)
(6.754594e+00 2.789622e-02 -1.320762e-01)
(6.657111e+00 3.317198e-02 -1.363269e-01)
(6.517818e+00 3.848920e-02 -1.393096e-01)
(6.416956e+00 4.454756e-02 -1.432749e-01)
(6.382446e+00 4.645860e-02 -1.450556e-01)
(6.399089e+00 4.548604e-02 -1.444965e-01)
(6.455822e+00 4.430893e-02 -1.426828e-01)
(6.517875e+00 4.162603e-02 -1.393336e-01)
(6.588411e+00 3.718715e-02 -1.364114e-01)
(6.550290e+00 1.162202e-02 -1.172683e-01)
(6.323544e+00 2.800217e-02 -1.752609e-01)
(6.855681e+00 -6.390342e-02 -3.040605e-02)
(8.051784e+00 -1.199990e-02 -3.582596e-02)
(8.421388e+00 -1.664176e-02 -4.342547e-02)
(8.500993e+00 -9.599481e-03 -5.770396e-02)
(8.487934e+00 -6.317781e-03 -5.593267e-02)
(8.414021e+00 -6.386759e-03 -5.590042e-02)
(8.327360e+00 -5.882480e-03 -5.544571e-02)
(8.211366e+00 -4.588793e-03 -5.416339e-02)
(8.039224e+00 -3.110014e-03 -5.225766e-02)
(7.820384e+00 1.412347e-03 -4.838780e-02)
(7.670053e+00 3.384087e-03 -4.633788e-02)
(7.603403e+00 4.430683e-03 -4.525871e-02)
(7.650369e+00 3.763169e-03 -4.531581e-02)
(7.812622e+00 2.712540e-03 -5.007598e-02)
(8.011316e+00 1.442101e-03 -5.333646e-02)
(8.126483e+00 1.208531e-03 -5.338951e-02)
(7.979988e+00 -4.292389e-03 -5.120448e-02)
(7.547474e+00 -1.669417e-02 -3.484244e-02)
(7.170206e+00 -1.004341e-02 -8.643863e-02)
(8.643891e+00 -1.914981e-02 -3.395319e-02)
(9.103554e+00 -2.407195e-02 -3.030042e-02)
(9.431328e+00 -2.424308e-02 -3.247792e-02)
(9.506069e+00 -2.442354e-02 -3.396345e-02)
(9.501937e+00 -2.555170e-02 -3.495776e-02)
(9.480253e+00 -2.683141e-02 -3.651676e-02)
(9.447732e+00 -2.836025e-02 -3.782253e-02)
(9.369741e+00 -2.877566e-02 -3.992975e-02)
(9.261845e+00 -2.917262e-02 -4.255870e-02)
(9.186497e+00 -2.825046e-02 -4.407421e-02)
(9.165279e+00 -2.911326e-02 -4.419691e-02)
(9.177952e+00 -2.973706e-02 -4.407515e-02)
(9.291578e+00 -2.749244e-02 -4.172960e-02)
(9.405075e+00 -2.446854e-02 -3.798979e-02)
(9.486218e+00 -2.326725e-02 -3.472647e-02)
(9.488376e+00 -2.351438e-02 -3.435777e-02)
(9.386527e+00 -2.799180e-02 -4.036675e-02)
(7.245687e+00 2.840826e-04 -9.127681e-02)
(8.982951e+00 -1.461413e-02 -4.398983e-02)
(9.543863e+00 -2.716890e-02 -2.946798e-02)
(9.796699e+00 -2.661948e-02 -3.208049e-02)
(9.884273e+00 -2.597654e-02 -3.220243e-02)
(9.909345e+00 -2.626886e-02 -3.310295e-02)
(9.923144e+00 -2.652415e-02 -3.383059e-02)
(9.932126e+00 -2.693509e-02 -3.426978e-02)
(9.935440e+00 -2.778300e-02 -3.408589e-02)
(9.916371e+00 -2.840694e-02 -3.498162e-02)
(9.926960e+00 -2.909204e-02 -3.638449e-02)
(9.893364e+00 -3.015499e-02 -3.564636e-02)
(9.887240e+00 -3.104759e-02 -3.525456e-02)
(9.926618e+00 -2.713959e-02 -3.433447e-02)
(9.938160e+00 -2.624038e-02 -3.342588e-02)
(9.956509e+00 -2.653475e-02 -3.254311e-02)
(9.962192e+00 -2.734755e-02 -3.258689e-02)
(1.000392e+01 -2.614441e-02 -3.410233e-02)
(7.315736e+00 -1.284583e-03 -9.109821e-02)
(9.245323e+00 -1.599938e-02 -3.615757e-02)
(9.709117e+00 -2.998644e-02 -3.125346e-02)
(9.949324e+00 -2.853088e-02 -3.503291e-02)
(1.003112e+01 -2.871214e-02 -3.586598e-02)
(1.005863e+01 -2.977542e-02 -3.536316e-02)
(1.008138e+01 -3.083881e-02 -3.488146e-02)
(1.009901e+01 -3.176678e-02 -3.414748e-02)
(1.010999e+01 -3.222850e-02 -3.306913e-02)
(1.011850e+01 -3.238803e-02 -3.238970e-02)
(1.012847e+01 -3.200649e-02 -3.196950e-02)
(1.012393e+01 -3.271111e-02 -3.202270e-02)
(1.009778e+01 -3.350418e-02 -3.191884e-02)
(1.011103e+01 -3.233362e-02 -3.351951e-02)
(1.009937e+01 -3.038042e-02 -3.580154e-02)
(1.010305e+01 -2.896704e-02 -3.637870e-02)
(1.010885e+01 -2.974238e-02 -3.663108e-02)
(1.017054e+01 -3.130135e-02 -3.570307e-02)
(7.385017e+00 -7.128851e-03 -8.441389e-02)
(9.401238e+00 -2.017498e-02 -2.976234e-02)
(9.751920e+00 -3.529241e-02 -3.212875e-02)
(9.965939e+00 -3.359383e-02 -3.540021e-02)
(1.005025e+01 -3.173053e-02 -3.738397e-02)
(1.008479e+01 -3.176886e-02 -3.756771e-02)
(1.011422e+01 -3.196488e-02 -3.755828e-02)
(1.014231e+01 -3.213081e-02 -3.785194e-02)
(1.016872e+01 -3.226834e-02 -3.815566e-02)
(1.019020e+01 -3.270904e-02 -3.828688e-02)
(1.020445e+01 -3.321068e-02 -3.841328e-02)
(1.020404e+01 -3.398363e-02 -3.819404e-02)
(1.016957e+01 -3.455153e-02 -3.809547e-02)
(1.016087e+01 -3.247387e-02 -3.800670e-02)
(1.011731e+01 -3.212517e-02 -3.805243e-02)
(1.010152e+01 -3.237209e-02 -3.717146e-02)
(1.010693e+01 -3.284251e-02 -3.749005e-02)
(1.019846e+01 -3.187237e-02 -3.834736e-02)
(7.466755e+00 -1.361227e-02 -7.679791e-02)
(9.522405e+00 -2.450137e-02 -2.436139e-02)
(9.740705e+00 -4.015492e-02 -2.679348e-02)
(9.938312e+00 -3.843133e-02 -2.971141e-02)
(1.002139e+01 -3.639112e-02 -3.249320e-02)
(1.005297e+01 -3.602765e-02 -3.363542e-02)
(1.008263e+01 -3.574987e-02 -3.465781e-02)
(1.010887e+01 -3.541654e-02 -3.584936e-02)
(1.013442e+01 -3.515808e-02 -3.694278e-02)
(1.015959e+01 -3.493667e-02 -3.784185e-02)
(1.017852e+01 -3.482894e-02 -3.830379e-02)
(1.017808e+01 -3.505486e-02 -3.856992e-02)
(1.014183e+01 -3.583831e-02 -3.835255e-02)
(1.012951e+01 -3.543474e-02 -3.663450e-02)
(1.008364e+01 -3.605106e-02 -3.386132e-02)
(1.006481e+01 -3.643232e-02 -3.197920e-02)
(1.006662e+01 -3.671697e-02 -3.230304e-02)
(1.016373e+01 -3.527103e-02 -3.492979e-02)
(7.551806e+00 -1.928972e-02 -6.934994e-02)
(9.618731e+00 -2.825749e-02 -2.274890e-02)
(9.732215e+00 -4.352528e-02 -2.064525e-02)
(9.914623e+00 -4.169490e-02 -2.410671e-02)
(9.990418e+00 -3.911533e-02 -2.674536e-02)
(1.001571e+01 -3.844696e-02 -2.837908e-02)
(1.003849e+01 -3.799164e-02 -2.979638e-02)
(1.005981e+01 -3.762974e-02 -3.105459e-02)
(1.007998e+01 -3.727780e-02 -3.220723e-02)
(1.009856e+01 -3.703188e-02 -3.322253e-02)
(1.011338e+01 -3.688623e-02 -3.416768e-02)
(1.011354e+01 -3.703432e-02 -3.483595e-02)
(1.008480e+01 -3.779714e-02 -3.442818e-02)
(1.007570e+01 -3.755937e-02 -3.196787e-02)
(1.003591e+01 -3.837979e-02 -2.856427e-02)
(1.002359e+01 -3.890748e-02 -2.617124e-02)
(1.002412e+01 -3.908456e-02 -2.655082e-02)
(1.009821e+01 -3.752399e-02 -3.015424e-02)
(7.657435e+00 -2.464105e-02 -6.240473e-02)
(9.680874e+00 -3.222490e-02 -2.265340e-02)
(9.708299e+00 -4.674135e-02 -1.543224e-02)
(9.891437e+00 -4.348225e-02 -1.753227e-02)
(9.959413e+00 -4.093013e-02 -2.026392e-02)
(9.981722e+00 -4.017220e-02 -2.162031e-02)
(9.998055e+00 -3.969997e-02 -2.278401e-02)
(1.001303e+01 -3.910629e-02 -2.406919e-02)
(1.002436e+01 -3.857872e-02 -2.543782e-02)
(1.003323e+01 -3.816562e-02 -2.692798e-02)
(1.004020e+01 -3.785529e-02 -2.832621e-02)
(1.004089e+01 -3.789998e-02 -2.926455e-02)
(1.001762e+01 -3.859934e-02 -2.890134e-02)
(1.002198e+01 -3.893816e-02 -2.523898e-02)
(9.996125e+00 -4.005688e-02 -2.177354e-02)
(9.989848e+00 -4.048015e-02 -1.965272e-02)
(9.986440e+00 -4.062756e-02 -2.003201e-02)
(1.004420e+01 -3.919202e-02 -2.331602e-02)
(7.791334e+00 -2.908103e-02 -5.505747e-02)
(9.722806e+00 -3.652456e-02 -2.435180e-02)
(9.701275e+00 -4.862645e-02 -9.287065e-03)
(9.868590e+00 -4.480701e-02 -1.120921e-02)
(9.932188e+00 -4.220146e-02 -1.371807e-02)
(9.953155e+00 -4.130732e-02 -1.521170e-02)
(9.966179e+00 -4.078004e-02 -1.660269e-02)
(9.977407e+00 -4.029435e-02 -1.793303e-02)
(9.986914e+00 -3.982201e-02 -1.922206e-02)
(9.996335e+00 -3.922083e-02 -2.061306e-02)
(1.000433e+01 -3.864242e-02 -2.191843e-02)
(1.000365e+01 -3.846353e-02 -2.294476e-02)
(9.982662e+00 -3.920849e-02 -2.259514e-02)
(9.982625e+00 -4.012912e-02 -1.920168e-02)
(9.962630e+00 -4.116549e-02 -1.552050e-02)
(9.957185e+00 -4.178948e-02 -1.299375e-02)
(9.950517e+00 -4.188028e-02 -1.345678e-02)
(9.993510e+00 -4.045257e-02 -1.710539e-02)
(7.922862e+00 -3.072304e-02 -5.002280e-02)
(9.740075e+00 -4.006478e-02 -2.309637e-02)
(9.721364e+00 -4.935035e-02 -4.953897e-03)
(9.872081e+00 -4.577348e-02 -7.088331e-03)
(9.914000e+00 -4.401679e-02 -8.925523e-03)
(9.929398e+00 -4.320910e-02 -1.013619e-02)
(9.941931e+00 -4.257832e-02 -1.136897e-02)
(9.951733e+00 -4.201168e-02 -1.264387e-02)
(9.960992e+00 -4.143430e-02 -1.390799e-02)
(9.968935e+00 -4.085475e-02 -1.516367e-02)
(9.977793e+00 -4.034345e-02 -1.642993e-02)
(9.979381e+00 -4.016560e-02 -1.739923e-02)
(9.958702e+00 -4.092998e-02 -1.701315e-02)
(9.957506e+00 -4.168844e-02 -1.383025e-02)
(9.939152e+00 -4.288024e-02 -1.053288e-02)
(9.941465e+00 -4.328091e-02 -8.817006e-03)
(9.932807e+00 -4.335732e-02 -9.061529e-03)
(9.966068e+00 -4.200371e-02 -1.198405e-02)
(8.051750e+00 -3.196179e-02 -4.654422e-02)
(9.727677e+00 -4.302129e-02 -1.891867e-02)
(9.744634e+00 -4.991059e-02 -2.146227e-03)
(9.875090e+00 -4.601398e-02 -4.502985e-03)
(9.916862e+00 -4.448501e-02 -6.188060e-03)
(9.924141e+00 -4.413121e-02 -7.349459e-03)
(9.930858e+00 -4.370000e-02 -8.420951e-03)
(9.938240e+00 -4.312892e-02 -9.569497e-03)
(9.944968e+00 -4.266428e-02 -1.079704e-02)
(9.951323e+00 -4.215861e-02 -1.193134e-02)
(9.956519e+00 -4.175427e-02 -1.302726e-02)
(9.954747e+00 -4.167511e-02 -1.377213e-02)
(9.933708e+00 -4.246226e-02 -1.324632e-02)
(9.942063e+00 -4.289366e-02 -1.067045e-02)
(9.932205e+00 -4.381481e-02 -7.773445e-03)
(9.943808e+00 -4.376055e-02 -6.163401e-03)
(9.933901e+00 -4.390963e-02 -6.441731e-03)
(9.957235e+00 -4.291479e-02 -9.004960e-03)
(8.170923e+00 -3.348341e-02 -4.608130e-02)
(9.718717e+00 -4.551053e-02 -1.487427e-02)
(9.757735e+00 -5.040280e-02 -4.597848e-05)
(9.876153e+00 -4.632233e-02 -2.392303e-03)
(9.916864e+00 -4.494913e-02 -3.983398e-03)
(9.922221e+00 -4.458197e-02 -5.019794e-03)
(9.925492e+00 -4.438690e-02 -6.000834e-03)
(9.928919e+00 -4.415723e-02 -6.939203e-03)
(9.934073e+00 -4.369000e-02 -8.000636e-03)
(9.938747e+00 -4.318487e-02 -9.187851e-03)
(9.941269e+00 -4.274106e-02 -1.031853e-02)
(9.938108e+00 -4.264252e-02 -1.105367e-02)
(9.919347e+00 -4.346720e-02 -1.049365e-02)
(9.931464e+00 -4.393115e-02 -7.904215e-03)
(9.929879e+00 -4.429202e-02 -5.433563e-03)
(9.944312e+00 -4.423350e-02 -3.890023e-03)
(9.932767e+00 -4.436318e-02 -4.096738e-03)
(9.953092e+00 -4.364191e-02 -6.569002e-03)
(8.272289e+00 -3.478408e-02 -4.549691e-02)
(9.719577e+00 -4.756930e-02 -1.100418e-02)
(9.761629e+00 -5.064139e-02 1.999157e-03)
(9.873746e+00 -4.666027e-02 -5.439283e-04)
(9.914210e+00 -4.521776e-02 -2.057772e-03)
(9.922242e+00 -4.502506e-02 -3.057488e-03)
(9.922059e+00 -4.482961e-02 -3.913784e-03)
(9.923725e+00 -4.464770e-02 -4.871035e-03)
(9.926936e+00 -4.440309e-02 -5.771830e-03)
(9.928597e+00 -4.419397e-02 -6.697673e-03)
(9.932193e+00 -4.376003e-02 -7.777741e-03)
(9.928821e+00 -4.365098e-02 -8.487914e-03)
(9.909452e+00 -4.450441e-02 -7.927109e-03)
(9.925081e+00 -4.454920e-02 -5.689911e-03)
(9.930537e+00 -4.467617e-02 -3.374978e-03)
(9.948031e+00 -4.428460e-02 -1.968659e-03)
(9.938705e+00 -4.447213e-02 -2.235102e-03)
(9.949315e+00 -4.389665e-02 -4.560300e-03)
(8.361383e+00 -3.585719e-02 -4.492525e-02)
(9.711457e+00 -4.856587e-02 -7.620818e-03)
(9.755976e+00 -5.047577e-02 3.886417e-03)
(9.877036e+00 -4.695978e-02 9.220477e-04)
(9.912159e+00 -4.525795e-02 -4.585677e-04)
(9.920708e+00 -4.500756e-02 -1.407304e-03)
(9.924202e+00 -4.493368e-02 -2.286545e-03)
(9.925501e+00 -4.478642e-02 -3.129100e-03)
(9.924312e+00 -4.457385e-02 -4.016705e-03)
(9.926133e+00 -4.444184e-02 -4.908368e-03)
(9.925268e+00 -4.441463e-02 -5.710729e-03)
(9.918023e+00 -4.469516e-02 -6.267683e-03)
(9.899849e+00 -4.528460e-02 -5.802275e-03)
(9.921216e+00 -4.477325e-02 -3.823876e-03)
(9.930766e+00 -4.467389e-02 -1.582706e-03)
(9.945242e+00 -4.414470e-02 -3.690680e-05)
(9.935584e+00 -4.428125e-02 -2.794477e-04)
(9.953974e+00 -4.400157e-02 -2.734062e-03)
(8.436827e+00 -3.662003e-02 -4.460097e-02)
(9.697493e+00 -4.919373e-02 -4.710387e-03)
(9.749100e+00 -5.001133e-02 5.970985e-03)
(9.877103e+00 -4.713822e-02 2.392976e-03)
(9.905131e+00 -4.527305e-02 1.178320e-03)
(9.911866e+00 -4.497425e-02 3.455257e-04)
(9.916516e+00 -4.499101e-02 -5.559699e-04)
(9.920032e+00 -4.501405e-02 -1.472280e-03)
(9.922198e+00 -4.491871e-02 -2.319368e-03)
(9.920739e+00 -4.472881e-02 -3.167327e-03)
(9.919011e+00 -4.467644e-02 -3.959679e-03)
(9.911862e+00 -4.494719e-02 -4.461688e-03)
(9.892409e+00 -4.553565e-02 -4.010908e-03)
(9.918898e+00 -4.508397e-02 -2.040428e-03)
(9.921766e+00 -4.453186e-02 4.252270e-04)
(9.942356e+00 -4.443663e-02 1.675765e-03)
(9.929939e+00 -4.447296e-02 1.547431e-03)
(9.946891e+00 -4.388836e-02 -5.127448e-04)
(8.502366e+00 -3.769669e-02 -4.290500e-02)
(9.676546e+00 -4.953591e-02 -1.781357e-03)
(9.738177e+00 -4.939181e-02 8.072663e-03)
(9.869243e+00 -4.707604e-02 3.623044e-03)
(9.899934e+00 -4.585986e-02 2.436736e-03)
(9.903811e+00 -4.553254e-02 1.596699e-03)
(9.903042e+00 -4.527551e-02 9.847796e-04)
(9.904403e+00 -4.515706e-02 3.616441e-04)
(9.906454e+00 -4.513911e-02 -3.975208e-04)
(9.908386e+00 -4.517397e-02 -1.195468e-03)
(9.907839e+00 -4.518951e-02 -1.940012e-03)
(9.899008e+00 -4.535508e-02 -2.448989e-03)
(9.881849e+00 -4.600107e-02 -1.998726e-03)
(9.902292e+00 -4.523602e-02 -7.265060e-05)
(9.912385e+00 -4.529442e-02 1.856067e-03)
(9.933215e+00 -4.504768e-02 3.171160e-03)
(9.919683e+00 -4.517806e-02 3.159918e-03)
(9.930985e+00 -4.428389e-02 1.327925e-03)
(8.560304e+00 -3.854728e-02 -4.107713e-02)
(9.676191e+00 -4.974098e-02 4.298897e-04)
(9.723955e+00 -4.912427e-02 9.704745e-03)
(9.851609e+00 -4.686707e-02 4.866695e-03)
(9.886286e+00 -4.623319e-02 3.651433e-03)
(9.888275e+00 -4.615936e-02 3.090302e-03)
(9.884858e+00 -4.608160e-02 2.560657e-03)
(9.883149e+00 -4.592690e-02 1.921542e-03)
(9.883513e+00 -4.584299e-02 1.336890e-03)
(9.884151e+00 -4.575539e-02 7.035550e-04)
(9.882996e+00 -4.571404e-02 6.889461e-05)
(9.875969e+00 -4.600445e-02 -4.626528e-04)
(9.857473e+00 -4.664870e-02 -6.799973e-05)
(9.878817e+00 -4.600658e-02 1.729121e-03)
(9.893998e+00 -4.609931e-02 3.466680e-03)
(9.918131e+00 -4.531049e-02 4.494533e-03)
(9.903906e+00 -4.559121e-02 4.657695e-03)
(9.911299e+00 -4.514698e-02 3.441794e-03)
(8.567093e+00 -3.833226e-02 -4.165198e-02)
(9.702903e+00 -4.946170e-02 1.560852e-03)
(9.716922e+00 -4.824302e-02 1.101296e-02)
(9.841438e+00 -4.601520e-02 6.049355e-03)
(9.883050e+00 -4.569777e-02 4.738924e-03)
(9.881283e+00 -4.616241e-02 4.359567e-03)
(9.876238e+00 -4.653640e-02 3.995901e-03)
(9.871063e+00 -4.674128e-02 3.620625e-03)
(9.866676e+00 -4.673817e-02 3.167684e-03)
(9.864956e+00 -4.661015e-02 2.610892e-03)
(9.864589e+00 -4.649449e-02 2.010181e-03)
(9.856768e+00 -4.670487e-02 1.523311e-03)
(9.836502e+00 -4.730163e-02 1.856846e-03)
(9.864919e+00 -4.687616e-02 3.550138e-03)
(9.885732e+00 -4.592649e-02 4.953475e-03)
(9.910502e+00 -4.475326e-02 5.774532e-03)
(9.897572e+00 -4.503466e-02 5.893228e-03)
(9.903356e+00 -4.539815e-02 5.193844e-03)
(8.384080e+00 -3.427979e-02 -2.914881e-02)
(9.713589e+00 -4.823411e-02 4.895420e-04)
(9.757742e+00 -4.674748e-02 1.135142e-02)
(9.871110e+00 -4.475794e-02 7.327112e-03)
(9.913190e+00 -4.467834e-02 5.991308e-03)
(9.910735e+00 -4.514047e-02 5.676212e-03)
(9.904048e+00 -4.563725e-02 5.312711e-03)
(9.899731e+00 -4.592230e-02 4.954112e-03)
(9.895119e+00 -4.607820e-02 4.615678e-03)
(9.892361e+00 -4.604718e-02 4.090841e-03)
(9.888555e+00 -4.602696e-02 3.512426e-03)
(9.878167e+00 -4.629642e-02 3.011995e-03)
(9.858328e+00 -4.684934e-02 3.328709e-03)
(9.891397e+00 -4.621339e-02 5.049683e-03)
(9.910563e+00 -4.504945e-02 6.248964e-03)
(9.934505e+00 -4.391733e-02 6.979933e-03)
(9.928234e+00 -4.418849e-02 6.821061e-03)
(9.935630e+00 -4.434178e-02 6.833472e-03)
(7.961603e+00 -4.726274e-02 -4.492485e-02)
(9.711126e+00 -4.957535e-02 -8.846866e-05)
(9.790068e+00 -4.634425e-02 8.535692e-03)
(9.909171e+00 -4.497198e-02 5.888119e-03)
(9.940387e+00 -4.481899e-02 4.831844e-03)
(9.940192e+00 -4.511067e-02 4.655044e-03)
(9.935896e+00 -4.528107e-02 4.179338e-03)
(9.933193e+00 -4.523230e-02 3.506536e-03)
(9.930949e+00 -4.511181e-02 2.845960e-03)
(9.930273e+00 -4.497627e-02 2.190061e-03)
(9.929332e+00 -4.502633e-02 1.526193e-03)
(9.918165e+00 -4.527124e-02 1.078117e-03)
(9.894515e+00 -4.595990e-02 1.464141e-03)
(9.922361e+00 -4.538452e-02 3.652695e-03)
(9.940810e+00 -4.489599e-02 5.315450e-03)
(9.962262e+00 -4.405362e-02 5.539485e-03)
(9.962164e+00 -4.378996e-02 6.249696e-03)
(9.928964e+00 -4.506405e-02 3.028182e-03)
(6.956135e+00 -4.885189e-02 -6.504665e-02)
(9.416228e+00 -5.082502e-02 -2.143824e-02)
(9.681117e+00 -4.886473e-02 2.542742e-03)
(9.818924e+00 -4.829977e-02 1.167444e-03)
(9.843525e+00 -4.723102e-02 4.713006e-04)
(9.846328e+00 -4.697138e-02 -2.127369e-04)
(9.848654e+00 -4.683883e-02 -9.109810e-04)
(9.851741e+00 -4.675800e-02 -1.707857e-03)
(9.854339e+00 -4.663798e-02 -2.488612e-03)
(9.853214e+00 -4.647289e-02 -3.303874e-03)
(9.850037e+00 -4.642828e-02 -4.064208e-03)
(9.838955e+00 -4.674686e-02 -4.521202e-03)
(9.820401e+00 -4.731472e-02 -3.742400e-03)
(9.858062e+00 -4.662707e-02 -1.403083e-03)
(9.863697e+00 -4.637338e-02 3.958124e-04)
(9.877546e+00 -4.613634e-02 1.239274e-03)
(9.843095e+00 -4.712770e-02 -1.377729e-03)
(9.791656e+00 -4.751676e-02 -3.692809e-03)
(6.832626e+00 -3.859900e-02 -9.041151e-02)
(9.597311e+00 -4.834416e-02 -2.333235e-02)
(9.743122e+00 -4.980246e-02 -3.155833e-03)
(9.849143e+00 -4.683695e-02 -1.164193e-03)
(9.885725e+00 -4.615887e-02 -1.476597e-03)
(9.890912e+00 -4.597324e-02 -2.193626e-03)
(9.894205e+00 -4.582953e-02 -3.005555e-03)
(9.893785e+00 -4.571737e-02 -3.918456e-03)
(9.894922e+00 -4.555442e-02 -4.822436e-03)
(9.897194e+00 -4.543025e-02 -5.704361e-03)
(9.896719e+00 -4.540072e-02 -6.567570e-03)
(9.887150e+00 -4.562348e-02 -7.048078e-03)
(9.866059e+00 -4.637380e-02 -6.108536e-03)
(9.905078e+00 -4.546186e-02 -3.340155e-03)
(9.916522e+00 -4.521490e-02 -1.306840e-03)
(9.929843e+00 -4.503554e-02 -1.099366e-03)
(9.901148e+00 -4.601417e-02 -3.649528e-03)
(9.821740e+00 -4.677998e-02 -8.987924e-03)
(6.746345e+00 -2.501279e-02 -9.896421e-02)
(9.685278e+00 -4.672464e-02 -2.533989e-02)
(9.785841e+00 -4.955385e-02 -3.290051e-03)
(9.881826e+00 -4.603832e-02 -8.233644e-04)
(9.916051e+00 -4.532568e-02 -1.094073e-03)
(9.921517e+00 -4.511786e-02 -1.841756e-03)
(9.925051e+00 -4.500776e-02 -2.683440e-03)
(9.924125e+00 -4.479737e-02 -3.562801e-03)
(9.925194e+00 -4.462497e-02 -4.475120e-03)
(9.926854e+00 -4.453782e-02 -5.350204e-03)
(9.924776e+00 -4.457067e-02 -6.133257e-03)
(9.914121e+00 -4.492814e-02 -6.590203e-03)
(9.893451e+00 -4.554137e-02 -5.689814e-03)
(9.935490e+00 -4.467604e-02 -3.052720e-03)
(9.945663e+00 -4.443043e-02 -8.810884e-04)
(9.961446e+00 -4.415581e-02 -7.083754e-04)
(9.940173e+00 -4.513630e-02 -3.573662e-03)
(9.864809e+00 -4.579051e-02 -8.709585e-03)
(6.770625e+00 -2.267820e-02 -9.841319e-02)
(9.718136e+00 -4.683540e-02 -2.550559e-02)
(9.798767e+00 -4.905995e-02 -1.889030e-03)
(9.889363e+00 -4.594641e-02 2.145228e-04)
(9.917419e+00 -4.509478e-02 -1.355475e-04)
(9.923464e+00 -4.499418e-02 -9.302263e-04)
(9.926580e+00 -4.487077e-02 -1.772602e-03)
(9.929290e+00 -4.474884e-02 -2.668187e-03)
(9.927734e+00 -4.452251e-02 -3.534530e-03)
(9.928315e+00 -4.440128e-02 -4.399484e-03)
(9.927113e+00 -4.441725e-02 -5.146497e-03)
(9.915858e+00 -4.482487e-02 -5.537691e-03)
(9.894373e+00 -4.546157e-02 -4.707769e-03)
(9.938154e+00 -4.471925e-02 -2.126260e-03)
(9.945262e+00 -4.415042e-02 1.282316e-04)
(9.962938e+00 -4.385711e-02 3.060410e-04)
(9.949336e+00 -4.487989e-02 -2.494009e-03)
(9.875138e+00 -4.571655e-02 -7.399360e-03)
(6.802460e+00 -2.505214e-02 -9.569176e-02)
(9.728872e+00 -4.710708e-02 -2.479001e-02)
(9.797815e+00 -4.857742e-02 -3.089177e-04)
(9.887497e+00 -4.617545e-02 1.287512e-03)
(9.909136e+00 -4.519165e-02 9.056504e-04)
(9.914153e+00 -4.507140e-02 1.761663e-04)
(9.917931e+00 -4.505000e-02 -6.987368e-04)
(9.920784e+00 -4.504982e-02 -1.591512e-03)
(9.922729e+00 -4.490444e-02 -2.403841e-03)
(9.921804e+00 -4.472511e-02 -3.258159e-03)
(9.920047e+00 -4.469619e-02 -4.019178e-03)
(9.909604e+00 -4.507578e-02 -4.431687e-03)
(9.887602e+00 -4.573338e-02 -3.595825e-03)
(9.930596e+00 -4.483413e-02 -1.030259e-03)
(9.939343e+00 -4.431113e-02 1.019105e-03)
(9.957770e+00 -4.398693e-02 1.242140e-03)
(9.946120e+00 -4.481158e-02 -1.248020e-03)
(9.875699e+00 -4.605424e-02 -5.911149e-03)
(6.847587e+00 -3.155671e-02 -8.987507e-02)
(9.630911e+00 -4.960969e-02 -2.241966e-02)
(9.743250e+00 -4.876555e-02 1.395677e-03)
(9.850427e+00 -4.769848e-02 2.638302e-03)
(9.878617e+00 -4.676572e-02 2.311935e-03)
(9.879869e+00 -4.658973e-02 1.565455e-03)
(9.880747e+00 -4.647604e-02 7.076465e-04)
(9.882718e+00 -4.634532e-02 -1.316345e-05)
(9.886625e+00 -4.618823e-02 -7.885671e-04)
(9.892613e+00 -4.597865e-02 -1.623801e-03)
(9.895374e+00 -4.586762e-02 -2.419831e-03)
(9.886725e+00 -4.622721e-02 -2.884340e-03)
(9.865716e+00 -4.674829e-02 -2.133285e-03)
(9.904795e+00 -4.582380e-02 1.931998e-04)
(9.920046e+00 -4.546633e-02 2.119794e-03)
(9.939345e+00 -4.515187e-02 2.411454e-03)
(9.921613e+00 -4.574220e-02 -1.410755e-04)
(9.858059e+00 -4.695737e-02 -4.110689e-03)
(6.868422e+00 -5.423424e-02 -7.145163e-02)
(9.479907e+00 -5.541079e-02 -1.277006e-02)
(9.549526e+00 -4.963916e-02 6.083882e-03)
(9.713808e+00 -4.912369e-02 6.182004e-03)
(9.749169e+00 -4.926923e-02 6.439104e-03)
(9.756871e+00 -4.929277e-02 5.681774e-03)
(9.755846e+00 -4.922693e-02 4.987146e-03)
(9.758725e+00 -4.906683e-02 4.145787e-03)
(9.774677e+00 -4.869277e-02 2.730743e-03)
(9.795918e+00 -4.815238e-02 8.218870e-04)
(9.818055e+00 -4.733978e-02 -1.598453e-03)
(9.820262e+00 -4.703005e-02 -2.926405e-03)
(9.796956e+00 -4.790380e-02 -1.949368e-03)
(9.827539e+00 -4.716122e-02 2.036573e-03)
(9.833969e+00 -4.701821e-02 4.690079e-03)
(9.871520e+00 -4.612526e-02 4.932915e-03)
(9.846256e+00 -4.747817e-02 1.052787e-03)
(9.783762e+00 -4.869991e-02 -4.632965e-03)
(6.693039e+00 -1.046085e-01 -4.507576e-02)
(9.168906e+00 -4.336555e-02 -8.867727e-03)
(9.457200e+00 -5.279886e-02 1.164039e-03)
(9.622794e+00 -4.888654e-02 -2.655176e-03)
(9.704376e+00 -4.817154e-02 -4.368630e-03)
(9.714714e+00 -4.798849e-02 -5.390893e-03)
(9.727285e+00 -4.743294e-02 -7.041904e-03)
(9.750740e+00 -4.673834e-02 -9.242720e-03)
(9.796687e+00 -4.516825e-02 -1.231017e-02)
(9.803312e+00 -4.256494e-02 -1.804577e-02)
(9.796566e+00 -4.065977e-02 -1.791685e-02)
(9.777874e+00 -3.962049e-02 -1.799649e-02)
(9.785542e+00 -3.970952e-02 -1.774067e-02)
(9.819489e+00 -3.911394e-02 -1.889568e-02)
(9.838981e+00 -3.797284e-02 -1.860418e-02)
(9.859567e+00 -3.708530e-02 -1.935739e-02)
(9.825701e+00 -3.762640e-02 -1.783921e-02)
(9.690809e+00 -3.905772e-02 -2.005854e-02)
(5.759645e+00 -1.362948e-02 -1.799753e-01)
(7.050017e+00 -9.965390e-02 -7.563053e-03)
(8.057477e+00 -4.242975e-02 -3.250365e-02)
(8.274098e+00 -3.748338e-02 -4.664356e-02)
(8.177971e+00 -3.526248e-02 -4.604268e-02)
(8.096405e+00 -3.410567e-02 -4.426154e-02)
(8.015078e+00 -3.263862e-02 -4.241959e-02)
(7.924902e+00 -3.096010e-02 -4.384182e-02)
(7.780311e+00 -3.172604e-02 -5.003025e-02)
(7.543606e+00 -3.317970e-02 -5.774420e-02)
(7.382639e+00 -3.068893e-02 -6.850941e-02)
(7.305623e+00 -2.670438e-02 -7.397249e-02)
(7.305046e+00 -2.504114e-02 -7.526461e-02)
(7.315315e+00 -2.669126e-02 -7.321651e-02)
(7.340779e+00 -2.810861e-02 -7.013266e-02)
(7.296600e+00 -2.845764e-02 -6.993178e-02)
(7.287956e+00 -2.559176e-02 -7.279269e-02)
(7.204415e+00 -2.751758e-02 -7.486232e-02)
(1.128136e+00 2.182953e-01 -2.276445e-01)
(6.236548e-01 1.564241e-01 2.309647e-05)
(1.049336e+00 1.558090e-01 3.551277e-02)
(6.994904e-01 1.708937e-01 3.977421e-02)
(6.834524e-01 1.706860e-01 3.731240e-02)
(6.862144e-01 1.699316e-01 3.720119e-02)
(6.876236e-01 1.693408e-01 3.724209e-02)
(6.873916e-01 1.688070e-01 3.732339e-02)
(6.875117e-01 1.683142e-01 3.734579e-02)
(6.879148e-01 1.678147e-01 3.734846e-02)
(6.883277e-01 1.673310e-01 3.732185e-02)
(6.881901e-01 1.668540e-01 3.729293e-02)
(6.874621e-01 1.663871e-01 3.732726e-02)
(6.856620e-01 1.659503e-01 3.741511e-02)
(6.834115e-01 1.655285e-01 3.749461e-02)
(6.812603e-01 1.650801e-01 3.759201e-02)
(6.785819e-01 1.646928e-01 3.772322e-02)
(6.722848e-01 1.645023e-01 3.788739e-02)
(6.636122e-01 1.644632e-01 3.804461e-02)
(6.548867e-01 1.644752e-01 3.816974e-02)
(6.449892e-01 1.644804e-01 3.837603e-02)
(6.339938e-01 1.644729e-01 3.868445e-02)
(6.224304e-01 1.645515e-01 3.926870e-02)
(6.109321e-01 1.646257e-01 3.983902e-02)
(5.995399e-01 1.647536e-01 4.035768e-02)
(5.880733e-01 1.649097e-01 4.082913e-02)
(5.763382e-01 1.650207e-01 4.127813e-02)
(5.645555e-01 1.651519e-01 4.174820e-02)
(5.509717e-01 1.653678e-01 4.222047e-02)
(5.372410e-01 1.656156e-01 4.269728e-02)
(5.233649e-01 1.658825e-01 4.321315e-02)
(5.101657e-01 1.661362e-01 4.378707e-02)
(4.973711e-01 1.663808e-01 4.437143e-02)
(4.853652e-01 1.665659e-01 4.502123e-02)
(4.737605e-01 1.667587e-01 4.557712e-02)
(4.623546e-01 1.669644e-01 4.614431e-02)
(4.511287e-01 1.671597e-01 4.666098e-02)
(4.375993e-01 1.674061e-01 4.724053e-02)
(4.252530e-01 1.676560e-01 4.791764e-02)
(4.109869e-01 1.681501e-01 4.861901e-02)
(3.953569e-01 1.687409e-01 4.931671e-02)
(3.798985e-01 1.693405e-01 4.980654e-02)
(3.642291e-01 1.700208e-01 5.026396e-02)
(3.467551e-01 1.707674e-01 5.082551e-02)
(3.291333e-01 1.716457e-01 5.146457e-02)
(3.116049e-01 1.725441e-01 5.208795e-02)
(2.935790e-01 1.734867e-01 5.251896e-02)
(2.753893e-01 1.743872e-01 5.295537e-02)
(2.557252e-01 1.751071e-01 5.347463e-02)
(2.364297e-01 1.756900e-01 5.410920e-02)
(2.174755e-01 1.762693e-01 5.473799e-02)
(1.975022e-01 1.769188e-01 5.537193e-02)
(1.764950e-01 1.776159e-01 5.602697e-02)
(1.538345e-01 1.783317e-01 5.665321e-02)
(1.304626e-01 1.790819e-01 5.736222e-02)
(1.068005e-01 1.798422e-01 5.779605e-02)
(8.207580e-02 1.806628e-01 5.810329e-02)
(5.484102e-02 1.816635e-01 5.838148e-02)
(2.606916e-02 1.827570e-01 5.866468e-02)
(-3.840561e-03 1.839740e-01 5.879501e-02)
(-3.496838e-02 1.852923e-01 5.886099e-02)
(-6.562938e-02 1.866200e-01 5.914678e-02)
(-9.607497e-02 1.878214e-01 5.943175e-02)
(-1.271464e-01 1.890153e-01 5.967798e-02)
(-1.595045e-01 1.901615e-01 5.997407e-02)
(-1.955620e-01 1.912841e-01 6.005165e-02)
(-2.339654e-01 1.922728e-01 5.990350e-02)
(-2.740249e-01 1.931806e-01 5.979842e-02)
(-3.138073e-01 1.939656e-01 5.973459e-02)
(-3.546716e-01 1.947829e-01 5.947924e-02)
(-3.949013e-01 1.955456e-01 5.912788e-02)
(-4.328238e-01 1.961376e-01 5.881725e-02)
(-4.691663e-01 1.964812e-01 5.848383e-02)
(-5.047726e-01 1.966979e-01 5.801095e-02)
(-5.391584e-01 1.969073e-01 5.738152e-02)
(-5.723319e-01 1.969588e-01 5.658866e-02)
(-6.071403e-01 1.966769e-01 5.498415e-02)
(-6.422220e-01 1.963869e-01 5.356400e-02)
(-6.771616e-01 1.961132e-01 5.223536e-02)
(-7.111200e-01 1.959025e-01 5.104445e-02)
(-7.472690e-01 1.957799e-01 4.952933e-02)
(-7.852352e-01 1.955304e-01 4.793891e-02)
(-8.203786e-01 1.950800e-01 4.631060e-02)
(-8.501463e-01 1.945522e-01 4.493244e-02)
(-8.787903e-01 1.938047e-01 4.347232e-02)
(-9.095125e-01 1.927274e-01 4.186871e-02)
(-9.374154e-01 1.915899e-01 4.024374e-02)
(-9.654151e-01 1.903713e-01 3.852953e-02)
(-9.902010e-01 1.889937e-01 3.651076e-02)
(-1.008813e+00 1.875249e-01 3.450248e-02)
(-1.022197e+00 1.856991e-01 3.234822e-02)
(-1.032958e+00 1.837761e-01 2.999077e-02)
(-1.039706e+00 1.816694e-01 2.708941e-02)
(-1.042423e+00 1.794115e-01 2.386323e-02)
(-1.044090e+00 1.769010e-01 2.007010e-02)
(-1.039702e+00 1.742188e-01 1.621117e-02)
(-1.034481e+00 1.715412e-01 1.233557e-02)
(-1.026378e+00 1.689197e-01 8.492771e-03)
(-1.018474e+00 1.662867e-01 4.386820e-03)
(-1.009787e+00 1.637071e-01 -1.115308e-04)
(-1.000460e+00 1.611445e-01 -4.685387e-03)
(-9.915242e-01 1.588403e-01 -9.068690e-03)
(-9.883527e-01 1.570808e-01 -1.288176e-02)
(-9.894386e-01 1.556543e-01 -1.747314e-02)
(-9.873899e-01 1.539440e-01 -2.137363e-02)
(-9.788642e-01 1.519763e-01 -2.460685e-02)
(-9.684499e-01 1.495946e-01 -2.730468e-02)
(-9.564158e-01 1.469884e-01 -2.973459e-02)
(-9.356775e-01 1.439289e-01 -3.246770e-02)
(-9.094697e-01 1.405222e-01 -3.499674e-02)
(-8.850276e-01 1.366351e-01 -3.729234e-02)
(-8.609827e-01 1.325486e-01 -4.032249e-02)
(-8.350127e-01 1.282863e-01 -4.308372e-02)
(-8.065273e-01 1.234987e-01 -4.592926e-02)
(-7.768378e-01 1.187785e-01 -5.019033e-02)
(-7.528922e-01 1.140333e-01 -5.442581e-02)
(-7.351332e-01 1.087009e-01 -5.899463e-02)
(-7.218037e-01 1.032110e-01 -6.237672e-02)
(-7.023249e-01 9.749900e-02 -6.512395e-02)
(-6.756236e-01 9.152143e-02 -6.764666e-02)
(-6.435675e-01 8.570284e-02 -7.095018e-02)
(-6.004503e-01 8.012145e-02 -7.520610e-02)
(-5.447184e-01 7.580336e-02 -8.103608e-02)
(-4.889369e-01 7.225360e-02 -8.747131e-02)
(-4.319441e-01 6.854793e-02 -9.234948e-02)
(-3.691725e-01 6.430112e-02 -9.514172e-02)
(-2.977479e-01 5.968091e-02 -9.752018e-02)
(-2.111216e-01 5.548305e-02 -1.007522e-01)
(-1.139943e-01 5.192431e-02 -1.053797e-01)
(-2.481661e-02 4.926764e-02 -1.095741e-01)
(4.934087e-02 4.749853e-02 -1.134534e-01)
(1.147091e-01 4.569660e-02 -1.166858e-01)
(1.757082e-01 4.427082e-02 -1.195466e-01)
(2.330195e-01 4.335203e-02 -1.227178e-01)
(2.867509e-01 4.252000e-02 -1.257279e-01)
(3.316036e-01 4.217690e-02 -1.286766e-01)
(3.744134e-01 4.219627e-02 -1.299210e-01)
(4.207662e-01 4.221704e-02 -1.308815e-01)
(4.624572e-01 4.216211e-02 -1.310465e-01)
(5.030847e-01 4.221397e-02 -1.313780e-01)
(5.457881e-01 4.264921e-02 -1.319509e-01)
(5.883942e-01 4.305933e-02 -1.324345e-01)
(6.311443e-01 4.358518e-02 -1.331035e-01)
(6.708663e-01 4.410264e-02 -1.336633e-01)